 vasp.5.4.4.18Apr17-6-g9f103f2a35 (build Apr 27 2017 19:51:02) complex          
  
 executed on       CrayXC-Intel16 date 2019.01.11  11:53:00
 running on  192 total cores
 distrk:  each k-point on  192 cores,    1 groups
 distr:  one band on NCORES_PER_BAND=  12 cores,   16 groups


--------------------------------------------------------------------------------------------------------


 INCAR:
 POTCAR:    PAW_PBE Mn_pv 02Aug2007               
 POTCAR:    PAW_PBE Ir 06Sep2000                  
 POTCAR:    PAW_PBE Mn_pv 02Aug2007               
   VRHFIN =Mn: 3p4s3d                                                           
   LEXCH  = PE                                                                  
   EATOM  =  2025.2664 eV,  148.8529 Ry                                         
                                                                                
   TITEL  = PAW_PBE Mn_pv 02Aug2007                                             
   LULTRA =        F    use ultrasoft PP ?                                      
   IUNSCR =        1    unscreen: 0-lin 1-nonlin 2-no                           
   RPACOR =    2.080    partial core radius                                     
   POMASS =   54.938; ZVAL   =   13.000    mass and valenz                      
   RCORE  =    2.300    outmost cutoff radius                                   
   RWIGS  =    2.500; RWIGS  =    1.323    wigner-seitz radius (au A)           
   ENMAX  =  269.864; ENMIN  =  202.398 eV                                      
   ICORE  =        3    local potential                                         
   LCOR   =        T    correct aug charges                                     
   LPAW   =        T    paw PP                                                  
   EAUG   =  569.085                                                            
   DEXC   =    0.000                                                            
   RMAX   =    2.343    core radius for proj-oper                               
   RAUG   =    1.300    factor for augmentation sphere                          
   RDEP   =    2.338    radius for radial grids                                 
   RDEPT  =    1.798    core radius for aug-charge                              
                                                                                
   Atomic configuration                                                         
    8 entries                                                                   
     n  l   j            E        occ.                                          
     1  0  0.50     -6424.8287   2.0000                                         
     2  0  0.50      -739.1154   2.0000                                         
     2  1  1.50      -625.3949   6.0000                                         
     3  0  0.50       -81.6100   2.0000                                         
     3  1  1.50       -50.4667   6.0000                                         
     3  2  2.50        -3.3745   6.0000                                         
     4  0  0.50        -4.1331   1.0000                                         
     4  3  2.50        -1.3606   0.0000                                         
   Description                                                                  
     l       E           TYP  RCUT    TYP  RCUT                                 
     1    -50.4666628     23  2.000                                             
     1     -1.3605826     23  2.000                                             
     2     -3.3744729     23  2.300                                             
     2     -4.7350555     23  2.300                                             
     0     -4.1331431     23  2.300                                             
     0      7.6656591     23  2.300                                             
     3      9.5240782     23  2.300                                             
  local pseudopotential read in
  partial core-charges read in
  partial kinetic energy density read in
  atomic valenz-charges read in
  non local Contribution for L=           1  read in
    real space projection operators read in
  non local Contribution for L=           1  read in
    real space projection operators read in
  non local Contribution for L=           2  read in
    real space projection operators read in
  non local Contribution for L=           2  read in
    real space projection operators read in
  non local Contribution for L=           0  read in
    real space projection operators read in
  non local Contribution for L=           0  read in
    real space projection operators read in
    PAW grid and wavefunctions read in
 
   number of l-projection  operators is LMAX  =           6
   number of lm-projection operators is LMMAX =          18
 
 POTCAR:    PAW_PBE Ir 06Sep2000                  
   VRHFIN =Ir: s1d8                                                             
   LEXCH  = PE                                                                  
   EATOM  =   560.1833 eV,   41.1723 Ry                                         
                                                                                
   TITEL  = PAW_PBE Ir 06Sep2000                                                
   LULTRA =        F    use ultrasoft PP ?                                      
   IUNSCR =        1    unscreen: 0-lin 1-nonlin 2-no                           
   RPACOR =    2.250    partial core radius                                     
   POMASS =  192.220; ZVAL   =    9.000    mass and valenz                      
   RCORE  =    2.600    outmost cutoff radius                                   
   RWIGS  =    2.690; RWIGS  =    1.423    wigner-seitz radius (au A)           
   ENMAX  =  210.864; ENMIN  =  158.148 eV                                      
   RCLOC  =    1.857    cutoff for local pot                                    
   LCOR   =        T    correct aug charges                                     
   LPAW   =        T    paw PP                                                  
   EAUG   =  318.962                                                            
   DEXC   =    0.000                                                            
   RMAX   =    2.667    core radius for proj-oper                               
   RAUG   =    1.300    factor for augmentation sphere                          
   RDEP   =    2.748    radius for radial grids                                 
   RDEPT  =    2.300    core radius for aug-charge                              
                                                                                
   Atomic configuration                                                         
   16 entries                                                                   
     n  l   j            E        occ.                                          
     1  0  0.50    -76100.0449   2.0000                                         
     2  0  0.50    -13308.1683   2.0000                                         
     2  1  1.50    -11558.0021   6.0000                                         
     3  0  0.50     -3110.7274   2.0000                                         
     3  1  1.50     -2599.2109   6.0000                                         
     3  2  2.50     -2037.1515  10.0000                                         
     4  0  0.50      -661.6001   2.0000                                         
     4  1  1.50      -493.8981   6.0000                                         
     4  2  2.50      -288.1909  10.0000                                         
     4  3  3.50       -59.5718  14.0000                                         
     5  0  0.50       -95.3879   2.0000                                         
     5  1  1.50       -52.2747   6.0000                                         
     5  2  2.50        -5.4180   8.0000                                         
     6  0  0.50        -5.5479   1.0000                                         
     6  1  1.50        -6.8029   0.0000                                         
     5  3  2.50        -1.3606   0.0000                                         
   Description                                                                  
     l       E           TYP  RCUT    TYP  RCUT                                 
     2     -5.4179967     23  2.600                                             
     2     -6.7785793     23  2.600                                             
     0     -5.5478636     23  2.600                                             
     0      2.2542272     23  2.600                                             
     1     -2.7211652     23  2.600                                             
     1     20.4087390     23  2.600                                             
  local pseudopotential read in
  partial core-charges read in
  partial kinetic energy density read in
  atomic valenz-charges read in
  non local Contribution for L=           2  read in
    real space projection operators read in
  non local Contribution for L=           2  read in
    real space projection operators read in
  non local Contribution for L=           0  read in
    real space projection operators read in
  non local Contribution for L=           0  read in
    real space projection operators read in
  non local Contribution for L=           1  read in
    real space projection operators read in
  non local Contribution for L=           1  read in
    real space projection operators read in
    PAW grid and wavefunctions read in
 
   number of l-projection  operators is LMAX  =           6
   number of lm-projection operators is LMMAX =          18
 
 Optimization of the real space projectors (new method)

 maximal supplied QI-value         = 16.25
 optimisation between [QCUT,QGAM] = [  9.43, 19.01] = [ 24.88,101.24] Ry 
 Optimized for a Real-space Cutoff    1.52 Angstroem

   l    n(q)    QCUT    max X(q) W(low)/X(q) W(high)/X(q)  e(spline) 
   1      8     9.426     3.658    0.24E-03    0.26E-03    0.12E-06
   1      8     9.426     5.612    0.47E-03    0.48E-03    0.24E-06
   2      8     9.426    55.373    0.30E-03    0.28E-03    0.20E-06
   2      8     9.426    50.863    0.31E-03    0.28E-03    0.21E-06
   0      9     9.426    79.536    0.11E-03    0.58E-04    0.81E-07
   0      9     9.426    38.668    0.10E-03    0.54E-04    0.75E-07
 Optimization of the real space projectors (new method)

 maximal supplied QI-value         = 14.36
 optimisation between [QCUT,QGAM] = [  9.48, 19.10] = [ 25.16,102.17] Ry 
 Optimized for a Real-space Cutoff    1.57 Angstroem

   l    n(q)    QCUT    max X(q) W(low)/X(q) W(high)/X(q)  e(spline) 
   2      8     9.479   134.116    0.18E-03    0.75E-03    0.26E-06
   2      8     9.479   130.192    0.18E-03    0.75E-03    0.27E-06
   0      9     9.479    60.310    0.39E-03    0.24E-03    0.63E-07
   0      9     9.479    39.218    0.36E-03    0.22E-03    0.59E-07
   1      8     9.479    18.439    0.20E-03    0.15E-03    0.16E-06
   1      8     9.479    12.760    0.16E-03    0.11E-03    0.13E-06
  PAW_PBE Mn_pv 02Aug2007               :
 energy of atom  1       EATOM=-2025.2664
 kinetic energy error for atom=    0.0530 (will be added to EATOM!!)
  PAW_PBE Ir 06Sep2000                  :
 energy of atom  2       EATOM= -560.1833
 kinetic energy error for atom=    0.0056 (will be added to EATOM!!)
 
 
 POSCAR: IrMn3 111 cell                          
  positions in cartesian coordinates
  No initial velocities read in
 exchange correlation table for  LEXCH =        8
   RHO(1)=    0.500       N(1)  =     2000
   RHO(2)=  100.500       N(2)  =     4000
 


--------------------------------------------------------------------------------------------------------


 ion  position               nearest neighbor table
   1  0.044  0.833  0.333-  96 2.63   2 2.63   3 2.63   5 2.63  73 2.63  73 2.63   3 2.63   6 2.63
                            74 2.63   2 2.63  71 2.63  70 2.63
   2  0.044  0.333  0.833-  71 2.63   4 2.63  74 2.63  72 2.63   1 2.63  73 2.63   6 2.63   3 2.63
                             3 2.63  73 2.63   1 2.63  96 2.63
   3  0.044  0.833  0.833-  70 2.63   4 2.63  74 2.63  72 2.63   1 2.63   5 2.63   2 2.63  73 2.63
                            73 2.63   1 2.63   2 2.63  96 2.63
   4  0.085  0.500  1.000-   3 2.63   2 2.63  73 2.63   5 2.63   6 2.63   8 2.63  74 2.63  74 2.63
                             6 2.63   9 2.63  75 2.63   5 2.63
   5  0.085  0.000  0.500-   7 2.63  73 2.63  75 2.63   4 2.63  74 2.63   9 2.63   3 2.63   6 2.63
                             1 2.63   6 2.63  74 2.63   4 2.63
   6  0.085  0.500  0.500-   7 2.63  73 2.63  75 2.63   4 2.63   2 2.63   8 2.63   5 2.63  74 2.63
                            74 2.63   4 2.63   1 2.63   5 2.63
   7  0.127  0.167  0.667-   6 2.63   5 2.63  74 2.63   8 2.63   9 2.63  11 2.63  75 2.63  75 2.63
                             9 2.63  12 2.63  76 2.63   8 2.63
   8  0.127  0.667  0.167-  10 2.63  74 2.63  76 2.63   7 2.63  75 2.63   6 2.63  12 2.63   9 2.63
                             4 2.63   9 2.63  75 2.63   7 2.63
   9  0.127  0.167  0.167-  10 2.63  74 2.63  76 2.63   7 2.63   5 2.63  11 2.63   8 2.63  75 2.63
                            75 2.63   7 2.63   4 2.63   8 2.63
  10  0.169  0.833  0.333-   9 2.63   8 2.63  75 2.63  11 2.63  12 2.63  14 2.63  76 2.63  76 2.63
                            12 2.63  15 2.63  77 2.63  11 2.63
  11  0.169  0.333  0.833-  13 2.63  75 2.63  77 2.63  10 2.63  76 2.63  15 2.63   9 2.63  12 2.63
                             7 2.63  12 2.63  76 2.63  10 2.63
  12  0.169  0.833  0.833-  13 2.63  75 2.63  77 2.63  10 2.63  14 2.63   8 2.63  11 2.63  76 2.63
                            76 2.63  10 2.63   7 2.63  11 2.63
  13  0.210  0.500  1.000-  12 2.63  11 2.63  76 2.63  14 2.63  15 2.63  17 2.63  77 2.63  77 2.63
                            15 2.63  18 2.63  78 2.63  14 2.63
  14  0.210  0.000  0.500-  16 2.63  76 2.63  78 2.63  13 2.63  77 2.63  12 2.63  18 2.63  15 2.63
                            10 2.63  15 2.63  77 2.63  13 2.63
  15  0.210  0.500  0.500-  16 2.63  76 2.63  78 2.63  13 2.63  11 2.63  17 2.63  14 2.63  77 2.63
                            77 2.63  13 2.63  10 2.63  14 2.63
  16  0.252  0.167  0.667-  15 2.63  14 2.63  77 2.63  17 2.63  18 2.63  20 2.63  78 2.63  78 2.63
                            18 2.63  21 2.63  79 2.63  17 2.63
  17  0.252  0.667  0.167-  19 2.63  77 2.63  79 2.63  16 2.63  78 2.63  15 2.63  21 2.63  18 2.63
                            13 2.63  18 2.63  78 2.63  16 2.63
  18  0.252  0.167  0.167-  19 2.63  77 2.63  79 2.63  16 2.63  14 2.63  20 2.63  17 2.63  78 2.63
                            78 2.63  16 2.63  13 2.63  17 2.63
  19  0.294  0.833  0.333-  18 2.63  17 2.63  78 2.63  20 2.63  21 2.63  23 2.63  79 2.63  79 2.63
                            21 2.63  24 2.63  80 2.63  20 2.63
  20  0.294  0.333  0.833-  22 2.63  78 2.63  80 2.63  19 2.63  79 2.63  24 2.63  18 2.63  21 2.63
                            16 2.63  21 2.63  79 2.63  19 2.63
  21  0.294  0.833  0.833-  22 2.63  78 2.63  80 2.63  19 2.63  23 2.63  17 2.63  20 2.63  79 2.63
                            79 2.63  19 2.63  16 2.63  20 2.63
  22  0.335  0.500  1.000-  21 2.63  20 2.63  79 2.63  23 2.63  24 2.63  26 2.63  80 2.63  80 2.63
                            24 2.63  27 2.63  81 2.63  23 2.63
  23  0.335  0.000  0.500-  25 2.63  79 2.63  81 2.63  22 2.63  80 2.63  21 2.63  27 2.63  24 2.63
                            19 2.63  24 2.63  80 2.63  22 2.63
  24  0.335  0.500  0.500-  25 2.63  79 2.63  81 2.63  22 2.63  20 2.63  26 2.63  23 2.63  80 2.63
                            80 2.63  22 2.63  19 2.63  23 2.63
  25  0.377  0.167  0.667-  24 2.63  23 2.63  80 2.63  26 2.63  27 2.63  29 2.63  81 2.63  81 2.63
                            27 2.63  30 2.63  82 2.63  26 2.63
  26  0.377  0.667  0.167-  28 2.63  80 2.63  82 2.63  25 2.63  81 2.63  24 2.63  30 2.63  27 2.63
                            22 2.63  27 2.63  81 2.63  25 2.63
  27  0.377  0.167  0.167-  28 2.63  80 2.63  82 2.63  25 2.63  23 2.63  29 2.63  26 2.63  81 2.63
                            81 2.63  25 2.63  22 2.63  26 2.63
  28  0.419  0.833  0.333-  27 2.63  26 2.63  81 2.63  29 2.63  30 2.63  32 2.63  82 2.63  82 2.63
                            30 2.63  33 2.63  83 2.63  29 2.63
  29  0.419  0.333  0.833-  31 2.63  81 2.63  83 2.63  28 2.63  82 2.63  33 2.63  27 2.63  30 2.63
                            25 2.63  30 2.63  82 2.63  28 2.63
  30  0.419  0.833  0.833-  31 2.63  81 2.63  83 2.63  28 2.63  32 2.63  26 2.63  29 2.63  82 2.63
                            82 2.63  28 2.63  25 2.63  29 2.63
  31  0.460  0.500  1.000-  30 2.63  29 2.63  82 2.63  32 2.63  33 2.63  35 2.63  83 2.63  83 2.63
                            33 2.63  36 2.63  84 2.63  32 2.63
  32  0.460  0.000  0.500-  34 2.63  82 2.63  84 2.63  31 2.63  83 2.63  36 2.63  30 2.63  33 2.63
                            28 2.63  33 2.63  83 2.63  31 2.63
  33  0.460  0.500  0.500-  34 2.63  82 2.63  84 2.63  31 2.63  35 2.63  29 2.63  32 2.63  83 2.63
                            83 2.63  31 2.63  28 2.63  32 2.63
  34  0.502  0.167  0.667-  33 2.63  32 2.63  83 2.63  35 2.63  36 2.63  38 2.63  84 2.63  84 2.63
                            36 2.63  39 2.63  85 2.63  35 2.63
  35  0.502  0.667  0.167-  37 2.63  83 2.63  85 2.63  34 2.63  84 2.63  33 2.63  39 2.63  36 2.63
                            31 2.63  36 2.63  84 2.63  34 2.63
  36  0.502  0.167  0.167-  37 2.63  83 2.63  85 2.63  34 2.63  32 2.63  38 2.63  35 2.63  84 2.63
                            84 2.63  34 2.63  31 2.63  35 2.63
  37  0.544  0.833  0.333-  36 2.63  35 2.63  84 2.63  38 2.63  39 2.63  41 2.63  85 2.63  85 2.63
                            39 2.63  42 2.63  86 2.63  38 2.63
  38  0.544  0.333  0.833-  40 2.63  84 2.63  86 2.63  37 2.63  85 2.63  42 2.63  36 2.63  39 2.63
                            34 2.63  39 2.63  85 2.63  37 2.63
  39  0.544  0.833  0.833-  40 2.63  84 2.63  86 2.63  37 2.63  41 2.63  35 2.63  38 2.63  85 2.63
                            85 2.63  37 2.63  34 2.63  38 2.63
  40  0.585  0.500  1.000-  39 2.63  38 2.63  85 2.63  41 2.63  42 2.63  44 2.63  86 2.63  86 2.63
                            42 2.63  45 2.63  87 2.63  41 2.63
  41  0.585  0.000  0.500-  43 2.63  85 2.63  87 2.63  40 2.63  86 2.63  45 2.63  39 2.63  42 2.63
                            37 2.63  42 2.63  86 2.63  40 2.63
  42  0.585  0.500  0.500-  43 2.63  85 2.63  87 2.63  40 2.63  38 2.63  44 2.63  41 2.63  86 2.63
                            86 2.63  40 2.63  37 2.63  41 2.63
  43  0.627  0.167  0.667-  42 2.63  41 2.63  86 2.63  44 2.63  45 2.63  47 2.63  87 2.63  87 2.63
                            45 2.63  48 2.63  88 2.63  44 2.63
  44  0.627  0.667  0.167-  46 2.63  86 2.63  88 2.63  43 2.63  87 2.63  42 2.63  48 2.63  45 2.63
                            40 2.63  45 2.63  87 2.63  43 2.63
  45  0.627  0.167  0.167-  46 2.63  86 2.63  88 2.63  43 2.63  41 2.63  47 2.63  44 2.63  87 2.63
                            87 2.63  43 2.63  40 2.63  44 2.63
  46  0.669  0.833  0.333-  45 2.63  44 2.63  87 2.63  47 2.63  48 2.63  50 2.63  88 2.63  88 2.63
                            48 2.63  51 2.63  89 2.63  47 2.63
  47  0.669  0.333  0.833-  49 2.63  87 2.63  89 2.63  46 2.63  88 2.63  51 2.63  45 2.63  48 2.63
                            43 2.63  48 2.63  88 2.63  46 2.63
  48  0.669  0.833  0.833-  49 2.63  87 2.63  89 2.63  46 2.63  50 2.63  44 2.63  47 2.63  88 2.63
                            88 2.63  46 2.63  43 2.63  47 2.63
  49  0.710  0.500  1.000-  48 2.63  47 2.63  88 2.63  50 2.63  51 2.63  53 2.63  89 2.63  89 2.63
                            51 2.63  54 2.63  90 2.63  50 2.63
  50  0.710  0.000  0.500-  52 2.63  88 2.63  90 2.63  49 2.63  89 2.63  54 2.63  48 2.63  51 2.63
                            46 2.63  51 2.63  89 2.63  49 2.63
  51  0.710  0.500  0.500-  52 2.63  88 2.63  90 2.63  49 2.63  47 2.63  53 2.63  50 2.63  89 2.63
                            89 2.63  49 2.63  46 2.63  50 2.63
  52  0.752  0.167  0.667-  51 2.63  50 2.63  89 2.63  53 2.63  54 2.63  56 2.63  90 2.63  90 2.63
                            54 2.63  57 2.63  91 2.63  53 2.63
  53  0.752  0.667  0.167-  55 2.63  89 2.63  91 2.63  52 2.63  90 2.63  51 2.63  57 2.63  54 2.63
                            49 2.63  54 2.63  90 2.63  52 2.63
  54  0.752  0.167  0.167-  55 2.63  89 2.63  91 2.63  52 2.63  50 2.63  56 2.63  53 2.63  90 2.63
                            90 2.63  52 2.63  49 2.63  53 2.63
  55  0.794  0.833  0.333-  54 2.63  53 2.63  90 2.63  56 2.63  57 2.63  59 2.63  91 2.63  91 2.63
                            57 2.63  60 2.63  92 2.63  56 2.63
  56  0.794  0.333  0.833-  58 2.63  90 2.63  92 2.63  55 2.63  91 2.63  60 2.63  54 2.63  57 2.63
                            52 2.63  57 2.63  91 2.63  55 2.63
  57  0.794  0.833  0.833-  58 2.63  90 2.63  92 2.63  55 2.63  59 2.63  53 2.63  56 2.63  91 2.63
                            91 2.63  55 2.63  52 2.63  56 2.63
  58  0.835  0.500  1.000-  57 2.63  56 2.63  91 2.63  59 2.63  60 2.63  62 2.63  92 2.63  92 2.63
                            60 2.63  63 2.63  93 2.63  59 2.63
  59  0.835  0.000  0.500-  61 2.63  91 2.63  93 2.63  58 2.63  92 2.63  63 2.63  57 2.63  60 2.63
                            55 2.63  60 2.63  92 2.63  58 2.63
  60  0.835  0.500  0.500-  61 2.63  91 2.63  93 2.63  58 2.63  56 2.63  62 2.63  59 2.63  92 2.63
                            92 2.63  58 2.63  55 2.63  59 2.63
  61  0.877  0.167  0.667-  60 2.63  59 2.63  92 2.63  62 2.63  63 2.63  65 2.63  93 2.63  93 2.63
                            63 2.63  66 2.63  94 2.63  62 2.63
  62  0.877  0.667  0.167-  64 2.63  92 2.63  94 2.63  61 2.63  93 2.63  60 2.63  66 2.63  63 2.63
                            58 2.63  63 2.63  93 2.63  61 2.63
  63  0.877  0.167  0.167-  64 2.63  92 2.63  94 2.63  61 2.63  59 2.63  65 2.63  62 2.63  93 2.63
                            93 2.63  61 2.63  58 2.63  62 2.63
  64  0.919  0.833  0.333-  63 2.63  62 2.63  93 2.63  65 2.63  66 2.63  68 2.63  94 2.63  94 2.63
                            66 2.63  69 2.63  95 2.63  65 2.63
  65  0.919  0.333  0.833-  67 2.63  93 2.63  95 2.63  64 2.63  94 2.63  69 2.63  63 2.63  66 2.63
                            61 2.63  66 2.63  94 2.63  64 2.63
  66  0.919  0.833  0.833-  67 2.63  93 2.63  95 2.63  64 2.63  68 2.63  62 2.63  65 2.63  94 2.63
                            94 2.63  64 2.63  61 2.63  65 2.63
  67  0.960  0.500  1.000-  66 2.63  65 2.63  94 2.63  68 2.63  69 2.63  70 2.63  95 2.63  95 2.63
                            69 2.63  71 2.63  96 2.63  68 2.63
  68  0.960  0.000  0.500-  94 2.63  96 2.63  67 2.63  95 2.63  66 2.63  71 2.63  69 2.63  64 2.63
                            69 2.63  95 2.63  67 2.63  72 2.63
  69  0.960  0.500  0.500-  94 2.63  96 2.63  67 2.63  65 2.63  70 2.63  68 2.63  95 2.63  95 2.63
                            67 2.63  64 2.63  68 2.63  72 2.63
  70  0.002  0.667  0.167-  72 2.63   3 2.63  95 2.63  96 2.63  69 2.63  71 2.63  67 2.63  71 2.63
                            96 2.63   1 2.63  73 2.63  72 2.63
  71  0.002  0.167  0.167-  72 2.63   2 2.63  95 2.63  68 2.63  70 2.63  96 2.63  96 2.63  67 2.63
                            70 2.63   1 2.63  73 2.63  72 2.63
  72  0.002  0.167  0.667-  71 2.63  70 2.63  95 2.63   2 2.63   3 2.63  73 2.63  96 2.63  96 2.63
                            69 2.63  68 2.63  70 2.63  71 2.63
  73  0.044  0.333  0.333-   6 2.63   5 2.63   4 2.63  72 2.63   2 2.63   3 2.63   1 2.63   1 2.63
                             3 2.63   2 2.63  70 2.63  71 2.63
  74  0.085  0.000  1.000-   9 2.63   8 2.63   2 2.63   3 2.63   7 2.63   5 2.63   6 2.63   4 2.63
                             4 2.63   6 2.63   1 2.63   5 2.63
  75  0.127  0.667  0.667-  12 2.63  11 2.63   5 2.63   6 2.63  10 2.63   8 2.63   9 2.63   7 2.63
                             7 2.63   9 2.63   4 2.63   8 2.63
  76  0.169  0.333  0.333-  15 2.63  14 2.63   8 2.63   9 2.63  13 2.63  11 2.63  12 2.63  10 2.63
                            10 2.63  12 2.63  11 2.63   7 2.63
  77  0.210  0.000  1.000-  18 2.63  17 2.63  11 2.63  12 2.63  16 2.63  14 2.63  15 2.63  13 2.63
                            13 2.63  15 2.63  10 2.63  14 2.63
  78  0.252  0.667  0.667-  21 2.63  20 2.63  14 2.63  15 2.63  19 2.63  17 2.63  18 2.63  16 2.63
                            16 2.63  18 2.63  13 2.63  17 2.63
  79  0.294  0.333  0.333-  24 2.63  23 2.63  17 2.63  18 2.63  22 2.63  20 2.63  21 2.63  19 2.63
                            19 2.63  21 2.63  20 2.63  16 2.63
  80  0.335  0.000  1.000-  27 2.63  26 2.63  20 2.63  21 2.63  25 2.63  23 2.63  24 2.63  22 2.63
                            22 2.63  24 2.63  19 2.63  23 2.63
  81  0.377  0.667  0.667-  30 2.63  29 2.63  23 2.63  24 2.63  28 2.63  26 2.63  27 2.63  25 2.63
                            25 2.63  27 2.63  22 2.63  26 2.63
  82  0.419  0.333  0.333-  33 2.63  32 2.63  26 2.63  27 2.63  31 2.63  29 2.63  30 2.63  28 2.63
                            28 2.63  30 2.63  29 2.63  25 2.63
  83  0.460  0.000  1.000-  36 2.63  35 2.63  29 2.63  30 2.63  34 2.63  32 2.63  33 2.63  31 2.63
                            31 2.63  33 2.63  28 2.63  32 2.63
  84  0.502  0.667  0.667-  39 2.63  38 2.63  32 2.63  33 2.63  37 2.63  35 2.63  36 2.63  34 2.63
                            34 2.63  36 2.63  31 2.63  35 2.63
  85  0.544  0.333  0.333-  42 2.63  41 2.63  35 2.63  36 2.63  40 2.63  38 2.63  39 2.63  37 2.63
                            37 2.63  39 2.63  38 2.63  34 2.63
  86  0.585  0.000  1.000-  45 2.63  44 2.63  38 2.63  39 2.63  43 2.63  41 2.63  42 2.63  40 2.63
                            40 2.63  42 2.63  37 2.63  41 2.63
  87  0.627  0.667  0.667-  48 2.63  47 2.63  41 2.63  42 2.63  46 2.63  44 2.63  45 2.63  43 2.63
                            43 2.63  45 2.63  40 2.63  44 2.63
  88  0.669  0.333  0.333-  51 2.63  50 2.63  44 2.63  45 2.63  49 2.63  47 2.63  48 2.63  46 2.63
                            46 2.63  48 2.63  47 2.63  43 2.63
  89  0.710  0.000  1.000-  54 2.63  53 2.63  47 2.63  48 2.63  52 2.63  50 2.63  51 2.63  49 2.63
                            49 2.63  51 2.63  46 2.63  50 2.63
  90  0.752  0.667  0.667-  57 2.63  56 2.63  50 2.63  51 2.63  55 2.63  53 2.63  54 2.63  52 2.63
                            52 2.63  54 2.63  49 2.63  53 2.63
  91  0.794  0.333  0.333-  60 2.63  59 2.63  53 2.63  54 2.63  58 2.63  56 2.63  57 2.63  55 2.63
                            55 2.63  57 2.63  56 2.63  52 2.63
  92  0.835  0.000  1.000-  63 2.63  62 2.63  56 2.63  57 2.63  61 2.63  59 2.63  60 2.63  58 2.63
                            58 2.63  60 2.63  55 2.63  59 2.63
  93  0.877  0.667  0.667-  66 2.63  65 2.63  59 2.63  60 2.63  64 2.63  62 2.63  63 2.63  61 2.63
                            61 2.63  63 2.63  58 2.63  62 2.63
  94  0.919  0.333  0.333-  69 2.63  68 2.63  62 2.63  63 2.63  67 2.63  65 2.63  66 2.63  64 2.63
                            64 2.63  66 2.63  65 2.63  61 2.63
  95  0.960  0.000  1.000-  72 2.63  71 2.63  70 2.63  65 2.63  66 2.63  68 2.63  69 2.63  67 2.63
                            67 2.63  69 2.63  64 2.63  68 2.63
  96  0.002  0.667  0.667-   1 2.63  68 2.63  69 2.63  70 2.63  71 2.63  72 2.63  72 2.63  71 2.63
                            67 2.63  70 2.63   3 2.63   2 2.63
 

IMPORTANT INFORMATION: All symmetrisations will be switched off!
NOSYMM: (Re-)initialisation of all symmetry stuff for point group C_1.

 
 
 KPOINTS: Automatic mesh                          

Automatic generation of k-mesh.
Space group operators:
 irot       det(A)        alpha          n_x          n_y          n_z        tau_x        tau_y        tau_z
    1     1.000000     0.000000     1.000000     0.000000     0.000000     0.000000     0.000000     0.000000
 
 Subroutine IBZKPT returns following result:
 ===========================================
 
 Found     25 irreducible k-points:
 
 Following reciprocal coordinates:
            Coordinates               Weight
  0.000000  0.000000  0.000000      1.000000
  0.000000  0.200000  0.000000      1.000000
  0.000000  0.400000  0.000000      1.000000
  0.000000 -0.400000  0.000000      1.000000
  0.000000 -0.200000  0.000000      1.000000
  0.000000  0.000000  0.200000      1.000000
  0.000000  0.200000  0.200000      1.000000
  0.000000  0.400000  0.200000      1.000000
  0.000000 -0.400000  0.200000      1.000000
  0.000000 -0.200000  0.200000      1.000000
  0.000000  0.000000  0.400000      1.000000
  0.000000  0.200000  0.400000      1.000000
  0.000000  0.400000  0.400000      1.000000
  0.000000 -0.400000  0.400000      1.000000
  0.000000 -0.200000  0.400000      1.000000
  0.000000  0.000000 -0.400000      1.000000
  0.000000  0.200000 -0.400000      1.000000
  0.000000  0.400000 -0.400000      1.000000
  0.000000 -0.400000 -0.400000      1.000000
  0.000000 -0.200000 -0.400000      1.000000
  0.000000  0.000000 -0.200000      1.000000
  0.000000  0.200000 -0.200000      1.000000
  0.000000  0.400000 -0.200000      1.000000
  0.000000 -0.400000 -0.200000      1.000000
  0.000000 -0.200000 -0.200000      1.000000
 
 Following cartesian coordinates:
            Coordinates               Weight
  0.000000  0.000000  0.000000      1.000000
  0.000000  0.038068 -0.021978      1.000000
  0.000000  0.076135 -0.043957      1.000000
  0.000000 -0.076135  0.043957      1.000000
  0.000000 -0.038068  0.021978      1.000000
  0.000000  0.000000  0.043957      1.000000
  0.000000  0.038068  0.021978      1.000000
  0.000000  0.076135  0.000000      1.000000
  0.000000 -0.076135  0.087913      1.000000
  0.000000 -0.038068  0.065935      1.000000
  0.000000  0.000000  0.087913      1.000000
  0.000000  0.038068  0.065935      1.000000
  0.000000  0.076135  0.043957      1.000000
  0.000000 -0.076135  0.131870      1.000000
  0.000000 -0.038068  0.109892      1.000000
  0.000000  0.000000 -0.087913      1.000000
  0.000000  0.038068 -0.109892      1.000000
  0.000000  0.076135 -0.131870      1.000000
  0.000000 -0.076135 -0.043957      1.000000
  0.000000 -0.038068 -0.065935      1.000000
  0.000000  0.000000 -0.043957      1.000000
  0.000000  0.038068 -0.065935      1.000000
  0.000000  0.076135 -0.087913      1.000000
  0.000000 -0.076135  0.000000      1.000000
  0.000000 -0.038068 -0.021978      1.000000
 


--------------------------------------------------------------------------------------------------------




 Dimension of arrays:
   k-points           NKPTS =     25   k-points in BZ     NKDIM =     25   number of bands    NBANDS=   1408
   number of dos      NEDOS =    301   number of ions     NIONS =     96
   non local maximal  LDIM  =      6   non local SUM 2l+1 LMDIM =     18
   total plane-waves  NPLWV = 138240
   max r-space proj   IRMAX =   1856   max aug-charges    IRDMAX=   8322
   dimension x,y,z NGX =   240 NGY =   24 NGZ =   24
   dimension x,y,z NGXF=   480 NGYF=   48 NGZF=   48
   support grid    NGXF=   480 NGYF=   48 NGZF=   48
   ions per type =              72  24
   NGX,Y,Z   is equivalent  to a cutoff of   7.75,  7.59,  7.59 a.u.
   NGXF,Y,Z  is equivalent  to a cutoff of  15.50, 15.19, 15.19 a.u.

 SYSTEM =  NiO                                     
 POSCAR =  IrMn3 111 cell                          

 Startparameter for this run:
   NWRITE =      2    write-flag & timer
   PREC   = normal    normal or accurate (medium, high low for compatibility)
   ISTART =      0    job   : 0-new  1-cont  2-samecut
   ICHARG =      1    charge: 1-file 2-atom 10-const
   ISPIN  =      1    spin polarized calculation?
   LNONCOLLINEAR =      T non collinear calculations
   LSORBIT =      T    spin-orbit coupling
   INIWAV =      1    electr: 0-lowe 1-rand  2-diag
   LASPH  =      F    aspherical Exc in radial PAW
   METAGGA=      F    non-selfconsistent MetaGGA calc.

 Electronic Relaxation 1
   ENCUT  =  350.0 eV  25.72 Ry    5.07 a.u.  78.52  8.01  8.01*2*pi/ulx,y,z
   ENINI  =  350.0     initial cutoff
   ENAUG  =  569.1 eV  augmentation charge cutoff
   NELM   =    300;   NELMIN=  2; NELMDL= -5     # of ELM steps 
   EDIFF  = 0.1E-03   stopping-criterion for ELM
   LREAL  =      T    real-space projection
   NLSPLINE    = F    spline interpolate recip. space projectors
   LCOMPAT=      F    compatible to vasp.4.4
   GGA_COMPAT  = F    GGA compatible to vasp.4.4-vasp.4.6
   LMAXPAW     = -100 max onsite density
   LMAXMIX     =    2 max onsite mixed and CHGCAR
   VOSKOWN=      0    Vosko Wilk Nusair interpolation
   ROPT   =   -0.00050  -0.00050
 Ionic relaxation
   EDIFFG = -.1E-02   stopping-criterion for IOM
   NSW    =      0    number of steps for IOM
   NBLOCK =      1;   KBLOCK =      1    inner block; outer block 
   IBRION =     -1    ionic relax: 0-MD 1-quasi-New 2-CG
   NFREE  =      0    steps in history (QN), initial steepest desc. (CG)
   ISIF   =      2    stress and relaxation
   IWAVPR =     10    prediction:  0-non 1-charg 2-wave 3-comb
   ISYM   =      0    0-nonsym 1-usesym 2-fastsym
   LCORR  =      T    Harris-Foulkes like correction to forces

   POTIM  = 0.5000    time-step for ionic-motion
   TEIN   =    0.0    initial temperature
   TEBEG  =    0.0;   TEEND  =   0.0 temperature during run
   SMASS  =  -3.00    Nose mass-parameter (am)
   estimated Nose-frequenzy (Omega)   =  0.10E-29 period in steps =****** mass=  -0.606E-25a.u.
   SCALEE = 1.0000    scale energy and forces
   NPACO  =    256;   APACO  = 16.0  distance and # of slots for P.C.
   PSTRESS=    0.0 pullay stress

  Mass of Ions in am
   POMASS =  54.94192.22
  Ionic Valenz
   ZVAL   =  13.00  9.00
  Atomic Wigner-Seitz radii
   RWIGS  =  -1.00 -1.00
  virtual crystal weights 
   VCA    =   1.00  1.00
   NELECT =    1152.0000    total number of electrons
   NUPDOWN=      -1.0000    fix difference up-down

 DOS related values:
   EMIN   =  10.00;   EMAX   =-10.00  energy-range for DOS
   EFERMI =   0.00
   ISMEAR =     0;   SIGMA  =   0.10  broadening in eV -4-tet -1-fermi 0-gaus

 Electronic relaxation 2 (details)
   IALGO  =     38    algorithm
   LDIAG  =      T    sub-space diagonalisation (order eigenvalues)
   LSUBROT=      F    optimize rotation matrix (better conditioning)
   TURBO    =      0    0=normal 1=particle mesh
   IRESTART =      0    0=no restart 2=restart with 2 vectors
   NREBOOT  =      0    no. of reboots
   NMIN     =      0    reboot dimension
   EREF     =   0.00    reference energy to select bands
   IMIX   =      4    mixing-type and parameters
     AMIX     =   0.40;   BMIX     =  1.00
     AMIX_MAG =   1.60;   BMIX_MAG =  1.00
     AMIN     =   0.01
     WC   =   100.;   INIMIX=   1;  MIXPRE=   1;  MAXMIX= -45

 Intra band minimization:
   WEIMIN = 0.0000     energy-eigenvalue tresh-hold
   EBREAK =  0.18E-07  absolut break condition
   DEPER  =   0.30     relativ break condition  

   TIME   =   0.40     timestep for ELM

  volume/ion in A,a.u.               =      12.82        86.50
  Fermi-wavevector in a.u.,A,eV,Ry     =   1.601510  3.026416 34.896706  2.564836
  Thomas-Fermi vector in A             =   2.698477
 
 Write flags
   LWAVE        =      T    write WAVECAR
   LDOWNSAMPLE  =      F    k-point downsampling of WAVECAR
   LCHARG       =      T    write CHGCAR
   LVTOT        =      F    write LOCPOT, total local potential
   LVHAR        =      F    write LOCPOT, Hartree potential only
   LELF         =      F    write electronic localiz. function (ELF)
   LORBIT       =     10    0 simple, 1 ext, 2 COOP (PROOUT), +10 PAW based schemes


 Dipole corrections
   LMONO  =      F    monopole corrections only (constant potential shift)
   LDIPOL =      F    correct potential (dipole corrections)
   IDIPOL =      0    1-x, 2-y, 3-z, 4-all directions 
   EPSILON=  1.0000000 bulk dielectric constant

 Exchange correlation treatment:
   GGA     =    --    GGA type
   LEXCH   =     8    internal setting for exchange type
   VOSKOWN=      0    Vosko Wilk Nusair interpolation
   LHFCALC =     F    Hartree Fock is set to
   LHFONE  =     F    Hartree Fock one center treatment
   AEXX    =    0.0000 exact exchange contribution

 Linear response parameters
   LEPSILON=     F    determine dielectric tensor
   LRPA    =     F    only Hartree local field effects (RPA)
   LNABLA  =     F    use nabla operator in PAW spheres
   LVEL    =     F    velocity operator in full k-point grid
   LINTERFAST=   F  fast interpolation
   KINTER  =     0    interpolate to denser k-point grid
   CSHIFT  =0.1000    complex shift for real part using Kramers Kronig
   OMEGAMAX=  -1.0    maximum frequency
   DEG_THRESHOLD= 0.2000000E-02 threshold for treating states as degnerate
   RTIME   =   -0.100 relaxation time in fs
  (WPLASMAI=    0.000 imaginary part of plasma frequency in eV, 0.658/RTIME)
   DFIELD  = 0.0000000 0.0000000 0.0000000 field for delta impulse in time
 
 Orbital magnetization related:
   ORBITALMAG=     F  switch on orbital magnetization
   LCHIMAG   =     F  perturbation theory with respect to B field
   DQ        =  0.001000  dq finite difference perturbation B field
   LLRAUG    =     F  two centre corrections for induced B field



--------------------------------------------------------------------------------------------------------


 Static calculation
 charge density and potential will be updated during run
 non collinear spin polarized calculation
 Variant of blocked Davidson
 Davidson routine will perform the subspace rotation
 perform sub-space diagonalisation
    after iterative eigenvector-optimisation
 modified Broyden-mixing scheme, WC =      100.0
 initial mixing is a Kerker type mixing with AMIX =  0.4000 and BMIX =      1.0000
 Hartree-type preconditioning will be used
 using additional bands          832
 real space projection scheme for non local part
 use partial core corrections
 calculate Harris-corrections to forces 
   (improved forces if not selfconsistent)
 use gradient corrections 
 use of overlap-Matrix (Vanderbilt PP)
 Gauss-broadening in eV      SIGMA  =   0.10


--------------------------------------------------------------------------------------------------------


  energy-cutoff  :      350.00
  volume of cell :     1230.52
      direct lattice vectors                 reciprocal lattice vectors
    51.476550000  0.000000000  0.000000000     0.019426321  0.000000000  0.000000000
     0.000000000  5.253803384  0.000000000     0.000000000  0.190338299 -0.109891868
     0.000000000  2.626901692  4.549927197     0.000000000  0.000000000  0.219783736

  length of vectors
    51.476550000  5.253803384  5.253803384     0.019426321  0.219783736  0.219783736


 
 k-points in units of 2pi/SCALE and weight: Automatic mesh                          
   0.00000000  0.00000000  0.00000000       0.040
   0.00000000  0.03806766 -0.02197837       0.040
   0.00000000  0.07613532 -0.04395675       0.040
   0.00000000 -0.07613532  0.04395675       0.040
   0.00000000 -0.03806766  0.02197837       0.040
   0.00000000  0.00000000  0.04395675       0.040
   0.00000000  0.03806766  0.02197837       0.040
   0.00000000  0.07613532  0.00000000       0.040
   0.00000000 -0.07613532  0.08791349       0.040
   0.00000000 -0.03806766  0.06593512       0.040
   0.00000000  0.00000000  0.08791349       0.040
   0.00000000  0.03806766  0.06593512       0.040
   0.00000000  0.07613532  0.04395675       0.040
   0.00000000 -0.07613532  0.13187024       0.040
   0.00000000 -0.03806766  0.10989187       0.040
   0.00000000  0.00000000 -0.08791349       0.040
   0.00000000  0.03806766 -0.10989187       0.040
   0.00000000  0.07613532 -0.13187024       0.040
   0.00000000 -0.07613532 -0.04395675       0.040
   0.00000000 -0.03806766 -0.06593512       0.040
   0.00000000  0.00000000 -0.04395675       0.040
   0.00000000  0.03806766 -0.06593512       0.040
   0.00000000  0.07613532 -0.08791349       0.040
   0.00000000 -0.07613532  0.00000000       0.040
   0.00000000 -0.03806766 -0.02197837       0.040
 
 k-points in reciprocal lattice and weights: Automatic mesh                          
   0.00000000  0.00000000  0.00000000       0.040
   0.00000000  0.20000000  0.00000000       0.040
   0.00000000  0.40000000  0.00000000       0.040
   0.00000000 -0.40000000  0.00000000       0.040
   0.00000000 -0.20000000  0.00000000       0.040
   0.00000000  0.00000000  0.20000000       0.040
   0.00000000  0.20000000  0.20000000       0.040
   0.00000000  0.40000000  0.20000000       0.040
   0.00000000 -0.40000000  0.20000000       0.040
   0.00000000 -0.20000000  0.20000000       0.040
   0.00000000  0.00000000  0.40000000       0.040
   0.00000000  0.20000000  0.40000000       0.040
   0.00000000  0.40000000  0.40000000       0.040
   0.00000000 -0.40000000  0.40000000       0.040
   0.00000000 -0.20000000  0.40000000       0.040
   0.00000000  0.00000000 -0.40000000       0.040
   0.00000000  0.20000000 -0.40000000       0.040
   0.00000000  0.40000000 -0.40000000       0.040
   0.00000000 -0.40000000 -0.40000000       0.040
   0.00000000 -0.20000000 -0.40000000       0.040
   0.00000000  0.00000000 -0.20000000       0.040
   0.00000000  0.20000000 -0.20000000       0.040
   0.00000000  0.40000000 -0.20000000       0.040
   0.00000000 -0.40000000 -0.20000000       0.040
   0.00000000 -0.20000000 -0.20000000       0.040
 
 position of ions in fractional coordinates (direct lattice) 
   0.04360930  0.83333333  0.33333333
   0.04360930  0.33333333  0.83333333
   0.04360930  0.83333333  0.83333333
   0.08527597  0.50000000  1.00000000
   0.08527597  0.00000000  0.50000000
   0.08527597  0.50000000  0.50000000
   0.12694263  0.16666667  0.66666667
   0.12694263  0.66666667  0.16666667
   0.12694263  0.16666667  0.16666667
   0.16860930  0.83333333  0.33333333
   0.16860930  0.33333333  0.83333333
   0.16860930  0.83333333  0.83333333
   0.21027597  0.50000000  1.00000000
   0.21027597  0.00000000  0.50000000
   0.21027597  0.50000000  0.50000000
   0.25194263  0.16666667  0.66666667
   0.25194263  0.66666667  0.16666667
   0.25194263  0.16666667  0.16666667
   0.29360930  0.83333333  0.33333333
   0.29360930  0.33333333  0.83333333
   0.29360930  0.83333333  0.83333333
   0.33527597  0.50000000  1.00000000
   0.33527597  0.00000000  0.50000000
   0.33527597  0.50000000  0.50000000
   0.37694263  0.16666667  0.66666667
   0.37694263  0.66666667  0.16666667
   0.37694263  0.16666667  0.16666667
   0.41860930  0.83333333  0.33333333
   0.41860930  0.33333333  0.83333333
   0.41860930  0.83333333  0.83333333
   0.46027597  0.50000000  1.00000000
   0.46027597  0.00000000  0.50000000
   0.46027597  0.50000000  0.50000000
   0.50194263  0.16666667  0.66666667
   0.50194263  0.66666667  0.16666667
   0.50194263  0.16666667  0.16666667
   0.54360930  0.83333333  0.33333333
   0.54360930  0.33333333  0.83333333
   0.54360930  0.83333333  0.83333333
   0.58527597  0.50000000  1.00000000
   0.58527597  0.00000000  0.50000000
   0.58527597  0.50000000  0.50000000
   0.62694263  0.16666667  0.66666667
   0.62694263  0.66666667  0.16666667
   0.62694263  0.16666667  0.16666667
   0.66860930  0.83333333  0.33333333
   0.66860930  0.33333333  0.83333333
   0.66860930  0.83333333  0.83333333
   0.71027597  0.50000000  1.00000000
   0.71027597  0.00000000  0.50000000
   0.71027597  0.50000000  0.50000000
   0.75194263  0.16666667  0.66666667
   0.75194263  0.66666667  0.16666667
   0.75194263  0.16666667  0.16666667
   0.79360930  0.83333333  0.33333333
   0.79360930  0.33333333  0.83333333
   0.79360930  0.83333333  0.83333333
   0.83527597  0.50000000  1.00000000
   0.83527597  0.00000000  0.50000000
   0.83527597  0.50000000  0.50000000
   0.87694263  0.16666667  0.66666667
   0.87694263  0.66666667  0.16666667
   0.87694263  0.16666667  0.16666667
   0.91860930  0.83333333  0.33333333
   0.91860930  0.33333333  0.83333333
   0.91860930  0.83333333  0.83333333
   0.96027597  0.50000000  1.00000000
   0.96027597  0.00000000  0.50000000
   0.96027597  0.50000000  0.50000000
   0.00194263  0.66666667  0.16666667
   0.00194263  0.16666667  0.16666667
   0.00194263  0.16666667  0.66666667
   0.04360930  0.33333333  0.33333333
   0.08527597  0.00000000  1.00000000
   0.12694263  0.66666667  0.66666667
   0.16860930  0.33333333  0.33333333
   0.21027597  0.00000000  1.00000000
   0.25194263  0.66666667  0.66666667
   0.29360930  0.33333333  0.33333333
   0.33527597  0.00000000  1.00000000
   0.37694263  0.66666667  0.66666667
   0.41860930  0.33333333  0.33333333
   0.46027597  0.00000000  1.00000000
   0.50194263  0.66666667  0.66666667
   0.54360930  0.33333333  0.33333333
   0.58527597  0.00000000  1.00000000
   0.62694263  0.66666667  0.66666667
   0.66860930  0.33333333  0.33333333
   0.71027597  0.00000000  1.00000000
   0.75194263  0.66666667  0.66666667
   0.79360930  0.33333333  0.33333333
   0.83527597  0.00000000  1.00000000
   0.87694263  0.66666667  0.66666667
   0.91860930  0.33333333  0.33333333
   0.96027597  0.00000000  1.00000000
   0.00194263  0.66666667  0.66666667
 
 position of ions in cartesian coordinates  (Angst):
   2.24485625  5.25380338  1.51664240
   2.24485625  3.94035254  3.79160600
   2.24485625  6.56725423  3.79160600
   4.38971250  5.25380338  4.54992720
   4.38971250  1.31345085  2.27496360
   4.38971250  3.94035254  2.27496360
   6.53456875  2.62690169  3.03328480
   6.53456875  3.94035254  0.75832120
   6.53456875  1.31345085  0.75832120
   8.67942500  5.25380338  1.51664240
   8.67942500  3.94035254  3.79160600
   8.67942500  6.56725423  3.79160600
  10.82428125  5.25380338  4.54992720
  10.82428125  1.31345085  2.27496360
  10.82428125  3.94035254  2.27496360
  12.96913750  2.62690169  3.03328480
  12.96913750  3.94035254  0.75832120
  12.96913750  1.31345085  0.75832120
  15.11399375  5.25380338  1.51664240
  15.11399375  3.94035254  3.79160600
  15.11399375  6.56725423  3.79160600
  17.25885000  5.25380338  4.54992720
  17.25885000  1.31345085  2.27496360
  17.25885000  3.94035254  2.27496360
  19.40370625  2.62690169  3.03328480
  19.40370625  3.94035254  0.75832120
  19.40370625  1.31345085  0.75832120
  21.54856250  5.25380338  1.51664240
  21.54856250  3.94035254  3.79160600
  21.54856250  6.56725423  3.79160600
  23.69341875  5.25380338  4.54992720
  23.69341875  1.31345085  2.27496360
  23.69341875  3.94035254  2.27496360
  25.83827500  2.62690169  3.03328480
  25.83827500  3.94035254  0.75832120
  25.83827500  1.31345085  0.75832120
  27.98313125  5.25380338  1.51664240
  27.98313125  3.94035254  3.79160600
  27.98313125  6.56725423  3.79160600
  30.12798750  5.25380338  4.54992720
  30.12798750  1.31345085  2.27496360
  30.12798750  3.94035254  2.27496360
  32.27284375  2.62690169  3.03328480
  32.27284375  3.94035254  0.75832120
  32.27284375  1.31345085  0.75832120
  34.41770000  5.25380338  1.51664240
  34.41770000  3.94035254  3.79160600
  34.41770000  6.56725423  3.79160600
  36.56255625  5.25380338  4.54992720
  36.56255625  1.31345085  2.27496360
  36.56255625  3.94035254  2.27496360
  38.70741250  2.62690169  3.03328480
  38.70741250  3.94035254  0.75832120
  38.70741250  1.31345085  0.75832120
  40.85226875  5.25380338  1.51664240
  40.85226875  3.94035254  3.79160600
  40.85226875  6.56725423  3.79160600
  42.99712500  5.25380338  4.54992720
  42.99712500  1.31345085  2.27496360
  42.99712500  3.94035254  2.27496360
  45.14198125  2.62690169  3.03328480
  45.14198125  3.94035254  0.75832120
  45.14198125  1.31345085  0.75832120
  47.28683750  5.25380338  1.51664240
  47.28683750  3.94035254  3.79160600
  47.28683750  6.56725423  3.79160600
  49.43169375  5.25380338  4.54992720
  49.43169375  1.31345085  2.27496360
  49.43169375  3.94035254  2.27496360
   0.10000000  3.94035254  0.75832120
   0.10000000  1.31345085  0.75832120
   0.10000000  2.62690169  3.03328480
   2.24485625  2.62690169  1.51664240
   4.38971250  2.62690169  4.54992720
   6.53456875  5.25380338  3.03328480
   8.67942500  2.62690169  1.51664240
  10.82428125  2.62690169  4.54992720
  12.96913750  5.25380338  3.03328480
  15.11399375  2.62690169  1.51664240
  17.25885000  2.62690169  4.54992720
  19.40370625  5.25380338  3.03328480
  21.54856250  2.62690169  1.51664240
  23.69341875  2.62690169  4.54992720
  25.83827500  5.25380338  3.03328480
  27.98313125  2.62690169  1.51664240
  30.12798750  2.62690169  4.54992720
  32.27284375  5.25380338  3.03328480
  34.41770000  2.62690169  1.51664240
  36.56255625  2.62690169  4.54992720
  38.70741250  5.25380338  3.03328480
  40.85226875  2.62690169  1.51664240
  42.99712500  2.62690169  4.54992720
  45.14198125  5.25380338  3.03328480
  47.28683750  2.62690169  1.51664240
  49.43169375  2.62690169  4.54992720
   0.10000000  5.25380338  3.03328480
 
 Euler angles ALPHA=     0.0000000  BETA=     0.0000000

 transformation matrix from SAXIS to cartesian coordinates
 ---------------------------------------------------------
     1.0000000 m_x     0.0000000 m_y     0.0000000 m_z
     0.0000000 m_x     1.0000000 m_y     0.0000000 m_z
     0.0000000 m_x     0.0000000 m_y     1.0000000 m_z

 transformation matrix from cartesian coordinates to SAXIS
 ---------------------------------------------------------
     1.0000000 m_x     0.0000000 m_y     0.0000000 m_z
     0.0000000 m_x     1.0000000 m_y     0.0000000 m_z
     0.0000000 m_x     0.0000000 m_y     1.0000000 m_z




--------------------------------------------------------------------------------------------------------


 k-point  1 :   0.0000 0.0000 0.0000  plane waves:   36146
 k-point  2 :   0.0000 0.2000 0.0000  plane waves:   36516
 k-point  3 :   0.0000 0.4000 0.0000  plane waves:   36572
 k-point  4 :   0.0000-0.4000 0.0000  plane waves:   36572
 k-point  5 :   0.0000-0.2000 0.0000  plane waves:   36516
 k-point  6 :   0.0000 0.0000 0.2000  plane waves:   36516
 k-point  7 :   0.0000 0.2000 0.2000  plane waves:   36516
 k-point  8 :   0.0000 0.4000 0.2000  plane waves:   36704
 k-point  9 :   0.0000-0.4000 0.2000  plane waves:   36692
 k-point 10 :   0.0000-0.2000 0.2000  plane waves:   36704
 k-point 11 :   0.0000 0.0000 0.4000  plane waves:   36572
 k-point 12 :   0.0000 0.2000 0.4000  plane waves:   36704
 k-point 13 :   0.0000 0.4000 0.4000  plane waves:   36572
 k-point 14 :   0.0000-0.4000 0.4000  plane waves:   36692
 k-point 15 :   0.0000-0.2000 0.4000  plane waves:   36692
 k-point 16 :   0.0000 0.0000-0.4000  plane waves:   36572
 k-point 17 :   0.0000 0.2000-0.4000  plane waves:   36692
 k-point 18 :   0.0000 0.4000-0.4000  plane waves:   36692
 k-point 19 :   0.0000-0.4000-0.4000  plane waves:   36572
 k-point 20 :   0.0000-0.2000-0.4000  plane waves:   36704
 k-point 21 :   0.0000 0.0000-0.2000  plane waves:   36516
 k-point 22 :   0.0000 0.2000-0.2000  plane waves:   36704
 k-point 23 :   0.0000 0.4000-0.2000  plane waves:   36692
 k-point 24 :   0.0000-0.4000-0.2000  plane waves:   36704
 k-point 25 :   0.0000-0.2000-0.2000  plane waves:   36516

 maximum and minimum number of plane-waves per node :      3338     2806

 maximum number of plane-waves:     36704
 maximum index in each direction: 
   IXMAX=   78   IYMAX=    8   IZMAX=    8
   IXMIN=  -78   IYMIN=   -8   IZMIN=   -8


 real space projection operators:
  total allocation   :      21876.75 KBytes
  max/ min on nodes  :       1838.25       1807.88


 parallel 3D FFT for wavefunctions:
    minimum data exchange during FFTs selected (reduces bandwidth)
 parallel 3D FFT for charge:
    minimum data exchange during FFTs selected (reduces bandwidth)


 total amount of memory used by VASP MPI-rank0   161412. kBytes
=======================================================================

   base      :      30000. kBytes
   nonlr-proj:       5231. kBytes
   fftplans  :        900. kBytes
   grid      :       3133. kBytes
   one-center:        497. kBytes
   wavefun   :     121651. kBytes
 
     INWAV:  cpu time    0.0000: real time    0.0000
 Broyden mixing: mesh for mixing (old mesh)
   NGX =157   NGY = 17   NGZ = 17
  (NGX  =480   NGY  = 48   NGZ  = 48)
  gives a total of  45373 points

 initial charge density was supplied:
 number of electron    1152.0004938 magnetization       0.0000000      0.0000000     24.0000000
 keeping initial charge density in first step


--------------------------------------------------------------------------------------------------------


 Maximum index for non-local projection operator          187
 Maximum index for augmentation-charges          499 (set IRDMAX)


--------------------------------------------------------------------------------------------------------


 First call to EWALD:  gamma=   0.165
 Maximum number of real-space cells 1x 6x 6
 Maximum number of reciprocal cells11x 2x 2

    FEWALD:  cpu time    0.0040: real time    0.0052


--------------------------------------- Iteration      1(   1)  ---------------------------------------


    POTLOK:  cpu time    0.0720: real time    0.1123
    SETDIJ:  cpu time    0.0280: real time    0.0283
     EDDAV:  cpu time  158.8779: real time  159.0183
       DOS:  cpu time    0.0160: real time    0.0154
    --------------------------------------------
      LOOP:  cpu time  158.9939: real time  159.1744

 eigenvalue-minimisations  : 80608
 total energy-change (2. order) : 0.1361576E+05  (-0.5099865E+05)
 number of electron    1152.0004938 magnetization       0.0000000     -0.0000000     24.0000000
 augmentation part     1152.0004938 magnetization       0.0000000     -0.0000000     24.0000000

 Free energy of the ion-electron system (eV)
  ---------------------------------------------------
  alpha Z        PSCENC =      9099.10973431
  Ewald energy   TEWEN  =   -124095.00916210
  -Hartree energ DENC   =    -34410.01378153
  -exchange      EXHF   =         0.00000000
  -V(xc)+E(xc)   XCENC  =      4454.32772290
  PAW double counting   =    146110.59836486  -149070.06368617
  entropy T*S    EENTRO =        -0.11330421
  eigenvalues    EBANDS =      2267.29319992
  atomic energy  EATOM  =    159259.63132215
  Solvation  Ediel_sol  =         0.00000000
  ---------------------------------------------------
  free energy    TOTEN  =     13615.76041014 eV

  energy without entropy =    13615.87371436  energy(sigma->0) =    13615.81706225


--------------------------------------------------------------------------------------------------------




--------------------------------------- Iteration      1(   2)  ---------------------------------------


     EDDAV:  cpu time  146.2731: real time  146.4045
       DOS:  cpu time    0.0240: real time    0.0231
    --------------------------------------------
      LOOP:  cpu time  146.2971: real time  146.4276

 eigenvalue-minimisations  : 70400
 total energy-change (2. order) :-0.1298086E+05  (-0.1264571E+05)
 number of electron    1152.0004938 magnetization       0.0000000     -0.0000000     24.0000000
 augmentation part     1152.0004938 magnetization       0.0000000     -0.0000000     24.0000000

 Free energy of the ion-electron system (eV)
  ---------------------------------------------------
  alpha Z        PSCENC =      9099.10973431
  Ewald energy   TEWEN  =   -124095.00916210
  -Hartree energ DENC   =    -34410.01378153
  -exchange      EXHF   =         0.00000000
  -V(xc)+E(xc)   XCENC  =      4454.32772290
  PAW double counting   =    146110.59836486  -149070.06368617
  entropy T*S    EENTRO =        -0.61331310
  eigenvalues    EBANDS =    -10713.06729122
  atomic energy  EATOM  =    159259.63132215
  Solvation  Ediel_sol  =         0.00000000
  ---------------------------------------------------
  free energy    TOTEN  =       634.89991011 eV

  energy without entropy =      635.51322321  energy(sigma->0) =      635.20656666


--------------------------------------------------------------------------------------------------------




--------------------------------------- Iteration      1(   3)  ---------------------------------------


     EDDAV:  cpu time  156.9978: real time  157.1427
       DOS:  cpu time    0.0080: real time    0.0106
    --------------------------------------------
      LOOP:  cpu time  157.0058: real time  157.1533

 eigenvalue-minimisations  : 75280
 total energy-change (2. order) :-0.1286130E+04  (-0.1097672E+04)
 number of electron    1152.0004938 magnetization       0.0000000     -0.0000000     24.0000000
 augmentation part     1152.0004938 magnetization       0.0000000     -0.0000000     24.0000000

 Free energy of the ion-electron system (eV)
  ---------------------------------------------------
  alpha Z        PSCENC =      9099.10973431
  Ewald energy   TEWEN  =   -124095.00916210
  -Hartree energ DENC   =    -34410.01378153
  -exchange      EXHF   =         0.00000000
  -V(xc)+E(xc)   XCENC  =      4454.32772290
  PAW double counting   =    146110.59836486  -149070.06368617
  entropy T*S    EENTRO =        -0.68288411
  eigenvalues    EBANDS =    -11999.12797348
  atomic energy  EATOM  =    159259.63132215
  Solvation  Ediel_sol  =         0.00000000
  ---------------------------------------------------
  free energy    TOTEN  =      -651.23034315 eV

  energy without entropy =     -650.54745904  energy(sigma->0) =     -650.88890109


--------------------------------------------------------------------------------------------------------




--------------------------------------- Iteration      1(   4)  ---------------------------------------


     EDDAV:  cpu time  217.0736: real time  217.2469
       DOS:  cpu time    0.0120: real time    0.0141
    --------------------------------------------
      LOOP:  cpu time  217.0856: real time  217.2610

 eigenvalue-minimisations  :109856
 total energy-change (2. order) :-0.2038554E+03  (-0.1856258E+03)
 number of electron    1152.0004938 magnetization       0.0000000     -0.0000000     24.0000000
 augmentation part     1152.0004938 magnetization       0.0000000     -0.0000000     24.0000000

 Free energy of the ion-electron system (eV)
  ---------------------------------------------------
  alpha Z        PSCENC =      9099.10973431
  Ewald energy   TEWEN  =   -124095.00916210
  -Hartree energ DENC   =    -34410.01378153
  -exchange      EXHF   =         0.00000000
  -V(xc)+E(xc)   XCENC  =      4454.32772290
  PAW double counting   =    146110.59836486  -149070.06368617
  entropy T*S    EENTRO =        -0.48792615
  eigenvalues    EBANDS =    -12203.17835203
  atomic energy  EATOM  =    159259.63132215
  Solvation  Ediel_sol  =         0.00000000
  ---------------------------------------------------
  free energy    TOTEN  =      -855.08576374 eV

  energy without entropy =     -854.59783759  energy(sigma->0) =     -854.84180066


--------------------------------------------------------------------------------------------------------




--------------------------------------- Iteration      1(   5)  ---------------------------------------


     EDDAV:  cpu time  192.8961: real time  193.0571
       DOS:  cpu time    0.0160: real time    0.0150
 


 total charge     
 
# of ion       s       p       d       tot
------------------------------------------
    1        0.359   6.321   5.017  11.697
    2        0.359   6.321   5.043  11.723
    3        0.359   6.322   5.051  11.731
    4        0.359   6.321   5.026  11.706
    5        0.359   6.322   5.064  11.745
    6        0.359   6.322   5.066  11.747
    7        0.360   6.322   5.020  11.702
    8        0.359   6.323   5.069  11.751
    9        0.360   6.323   5.071  11.753
   10        0.360   6.322   5.030  11.711
   11        0.360   6.323   5.079  11.761
   12        0.360   6.323   5.080  11.762
   13        0.360   6.322   5.021  11.703
   14        0.359   6.323   5.073  11.755
   15        0.359   6.323   5.075  11.757
   16        0.360   6.322   5.029  11.711
   17        0.360   6.323   5.079  11.761
   18        0.360   6.323   5.080  11.762
   19        0.360   6.322   5.027  11.709
   20        0.360   6.323   5.079  11.762
   21        0.360   6.323   5.079  11.761
   22        0.360   6.322   5.022  11.704
   23        0.359   6.323   5.074  11.756
   24        0.360   6.323   5.075  11.758
   25        0.360   6.322   5.027  11.709
   26        0.360   6.323   5.080  11.762
   27        0.360   6.323   5.078  11.760
   28        0.360   6.322   5.028  11.710
   29        0.360   6.323   5.079  11.761
   30        0.360   6.323   5.078  11.760
   31        0.360   6.322   5.022  11.703
   32        0.359   6.323   5.074  11.756
   33        0.359   6.323   5.074  11.756
   34        0.360   6.322   5.028  11.710
   35        0.359   6.323   5.079  11.761
   36        0.360   6.323   5.079  11.761
   37        0.360   6.322   5.028  11.709
   38        0.360   6.323   5.079  11.761
   39        0.360   6.323   5.079  11.761
   40        0.360   6.322   5.023  11.704
   41        0.359   6.323   5.074  11.756
   42        0.359   6.323   5.074  11.756
   43        0.360   6.322   5.028  11.710
   44        0.359   6.323   5.079  11.761
   45        0.360   6.323   5.078  11.761
   46        0.360   6.322   5.028  11.710
   47        0.360   6.323   5.079  11.761
   48        0.360   6.323   5.079  11.761
   49        0.360   6.322   5.022  11.703
   50        0.359   6.323   5.074  11.756
   51        0.359   6.323   5.075  11.757
   52        0.360   6.322   5.029  11.711
   53        0.360   6.323   5.079  11.762
   54        0.360   6.323   5.079  11.761
   55        0.360   6.322   5.027  11.709
   56        0.360   6.323   5.078  11.761
   57        0.360   6.323   5.078  11.760
   58        0.360   6.322   5.025  11.706
   59        0.359   6.323   5.074  11.756
   60        0.359   6.323   5.075  11.757
   61        0.360   6.322   5.021  11.703
   62        0.359   6.323   5.069  11.751
   63        0.359   6.323   5.071  11.753
   64        0.359   6.321   5.030  11.711
   65        0.359   6.322   5.069  11.750
   66        0.359   6.322   5.072  11.754
   67        0.359   6.321   5.012  11.691
   68        0.359   6.321   5.039  11.719
   69        0.359   6.321   5.047  11.727
   70        0.359   6.320   5.004  11.683
   71        0.359   6.320   5.018  11.697
   72        0.359   6.319   4.984  11.662
   73        0.755   0.715   6.911   8.381
   74        0.755   0.714   6.933   8.402
   75        0.755   0.715   6.934   8.404
   76        0.755   0.716   6.937   8.408
   77        0.755   0.716   6.936   8.406
   78        0.755   0.716   6.937   8.408
   79        0.755   0.716   6.937   8.408
   80        0.755   0.716   6.935   8.406
   81        0.755   0.716   6.938   8.409
   82        0.755   0.716   6.937   8.408
   83        0.755   0.715   6.935   8.406
   84        0.755   0.716   6.937   8.408
   85        0.755   0.716   6.938   8.408
   86        0.755   0.716   6.935   8.406
   87        0.755   0.716   6.938   8.409
   88        0.755   0.716   6.938   8.409
   89        0.755   0.716   6.936   8.407
   90        0.755   0.716   6.938   8.409
   91        0.755   0.716   6.937   8.409
   92        0.755   0.716   6.935   8.405
   93        0.755   0.715   6.934   8.404
   94        0.755   0.714   6.935   8.404
   95        0.755   0.714   6.910   8.379
   96        0.755   0.712   6.894   8.361
--------------------------------------------------
tot         44.008 472.357 530.3081046.674
 


 magnetization (x)
 
# of ion       s       p       d       tot
------------------------------------------
    1       -0.000  -0.000   0.000   0.000
    2       -0.000  -0.000   0.001   0.001
    3       -0.000  -0.000  -0.000  -0.000
    4       -0.000   0.000  -0.001  -0.001
    5       -0.000   0.000  -0.000  -0.000
    6       -0.000   0.000  -0.001  -0.001
    7       -0.000  -0.000  -0.003  -0.003
    8       -0.000  -0.000  -0.002  -0.002
    9       -0.000   0.000  -0.002  -0.002
   10       -0.000  -0.000  -0.002  -0.002
   11       -0.000  -0.000  -0.001  -0.001
   12       -0.000   0.000  -0.002  -0.002
   13       -0.000   0.000  -0.002  -0.002
   14       -0.000   0.000  -0.002  -0.002
   15       -0.000   0.000  -0.001  -0.001
   16       -0.000  -0.000  -0.002  -0.002
   17       -0.000   0.000  -0.002  -0.002
   18        0.000   0.000  -0.002  -0.002
   19       -0.000   0.000  -0.002  -0.002
   20       -0.000   0.000  -0.001  -0.001
   21       -0.000   0.000  -0.003  -0.003
   22       -0.000  -0.000  -0.002  -0.002
   23       -0.000   0.000  -0.002  -0.002
   24       -0.000  -0.000  -0.001  -0.001
   25       -0.000  -0.000  -0.003  -0.003
   26       -0.000  -0.000  -0.002  -0.002
   27       -0.000  -0.000  -0.001  -0.001
   28       -0.000  -0.000  -0.003  -0.003
   29       -0.000  -0.000  -0.002  -0.002
   30       -0.000  -0.000  -0.002  -0.002
   31       -0.000  -0.000  -0.003  -0.003
   32       -0.000   0.000  -0.002  -0.002
   33       -0.000  -0.000  -0.002  -0.002
   34       -0.000  -0.000  -0.002  -0.002
   35       -0.000  -0.000  -0.002  -0.002
   36       -0.000   0.000  -0.002  -0.002
   37       -0.000  -0.000  -0.004  -0.004
   38        0.000  -0.000  -0.002  -0.002
   39       -0.000   0.000  -0.001  -0.001
   40       -0.000  -0.000  -0.003  -0.003
   41       -0.000  -0.000  -0.001  -0.001
   42       -0.000  -0.000  -0.002  -0.002
   43       -0.000  -0.000  -0.002  -0.002
   44       -0.000  -0.000  -0.001  -0.001
   45       -0.000   0.000  -0.001  -0.001
   46       -0.000   0.000  -0.002  -0.002
   47       -0.000   0.000  -0.002  -0.002
   48       -0.000   0.000  -0.002  -0.002
   49       -0.000  -0.000  -0.003  -0.003
   50       -0.000   0.000  -0.002  -0.002
   51       -0.000  -0.000  -0.001  -0.001
   52       -0.000   0.000  -0.002  -0.002
   53       -0.000  -0.000  -0.001  -0.001
   54       -0.000  -0.000  -0.002  -0.002
   55       -0.000  -0.000  -0.002  -0.002
   56       -0.000   0.000  -0.000  -0.000
   57       -0.000  -0.000  -0.002  -0.002
   58        0.000  -0.000  -0.002  -0.002
   59        0.000  -0.000  -0.001  -0.001
   60       -0.000  -0.000  -0.002  -0.002
   61       -0.000  -0.000  -0.001  -0.001
   62       -0.000  -0.000  -0.002  -0.002
   63        0.000   0.000  -0.002  -0.002
   64        0.000   0.000  -0.002  -0.002
   65       -0.000   0.000   0.000   0.000
   66       -0.000   0.000  -0.000  -0.000
   67       -0.000  -0.000  -0.000  -0.000
   68       -0.000  -0.000   0.001   0.001
   69       -0.000  -0.000   0.000   0.000
   70        0.000  -0.000  -0.005  -0.005
   71        0.000  -0.000  -0.005  -0.005
   72        0.000  -0.000  -0.004  -0.005
   73       -0.000   0.000  -0.001  -0.001
   74        0.000   0.000  -0.001  -0.000
   75        0.000   0.000  -0.001  -0.001
   76       -0.000   0.000  -0.001  -0.000
   77       -0.000   0.000  -0.001  -0.001
   78        0.000   0.000  -0.000  -0.000
   79        0.000   0.000  -0.001  -0.000
   80        0.000   0.000  -0.001  -0.001
   81       -0.000  -0.000  -0.001  -0.001
   82       -0.000   0.000  -0.001  -0.001
   83        0.000   0.000  -0.001  -0.001
   84       -0.000   0.000  -0.001  -0.001
   85        0.000   0.000  -0.001  -0.001
   86       -0.000  -0.000  -0.001  -0.001
   87       -0.000   0.000  -0.001  -0.001
   88       -0.000   0.000  -0.001  -0.001
   89       -0.000   0.000  -0.001  -0.001
   90       -0.000   0.000  -0.001  -0.001
   91       -0.000  -0.000  -0.001  -0.001
   92        0.000   0.000  -0.001  -0.001
   93        0.000   0.000  -0.001  -0.000
   94       -0.000   0.000  -0.001  -0.000
   95       -0.000  -0.000  -0.001  -0.001
   96       -0.000   0.000   0.000   0.000
--------------------------------------------------
tot         -0.003   0.001  -0.140  -0.141
 


 magnetization (y)
 
# of ion       s       p       d       tot
------------------------------------------
    1        0.001   0.001   0.046   0.048
    2       -0.008  -0.012  -1.087  -1.108
    3        0.007   0.011   1.029   1.047
    4        0.000   0.001   0.023   0.024
    5       -0.009  -0.013  -1.101  -1.123
    6        0.009   0.012   1.075   1.096
    7        0.000  -0.000   0.001   0.001
    8       -0.009  -0.013  -1.099  -1.122
    9        0.009   0.014   1.098   1.121
   10       -0.000   0.000   0.001   0.001
   11       -0.009  -0.013  -1.100  -1.122
   12        0.009   0.013   1.098   1.120
   13       -0.000   0.000   0.001   0.001
   14       -0.009  -0.013  -1.100  -1.122
   15        0.009   0.013   1.098   1.121
   16        0.000   0.000   0.000   0.000
   17       -0.009  -0.013  -1.099  -1.121
   18        0.009   0.013   1.098   1.121
   19        0.000  -0.000  -0.000  -0.000
   20       -0.009  -0.013  -1.098  -1.121
   21        0.009   0.013   1.098   1.120
   22        0.000  -0.000   0.001   0.001
   23       -0.009  -0.013  -1.098  -1.121
   24        0.009   0.013   1.098   1.121
   25       -0.000   0.000  -0.001  -0.001
   26       -0.009  -0.013  -1.098  -1.120
   27        0.009   0.013   1.098   1.121
   28       -0.000  -0.000   0.000   0.000
   29       -0.009  -0.013  -1.099  -1.121
   30        0.009   0.013   1.097   1.120
   31        0.000  -0.000   0.000   0.000
   32       -0.009  -0.013  -1.097  -1.120
   33        0.009   0.013   1.098   1.120
   34       -0.000  -0.000   0.000  -0.000
   35       -0.009  -0.013  -1.099  -1.121
   36        0.009   0.013   1.097   1.120
   37       -0.000   0.000   0.001   0.001
   38       -0.009  -0.013  -1.098  -1.120
   39        0.009   0.013   1.098   1.121
   40        0.000   0.000   0.001   0.001
   41       -0.009  -0.013  -1.099  -1.121
   42        0.009   0.013   1.098   1.121
   43        0.000   0.000  -0.001  -0.001
   44       -0.009  -0.013  -1.099  -1.122
   45        0.009   0.013   1.098   1.121
   46       -0.000  -0.000  -0.000  -0.000
   47       -0.009  -0.013  -1.098  -1.120
   48        0.009   0.013   1.098   1.120
   49       -0.000  -0.000   0.001   0.001
   50       -0.009  -0.013  -1.098  -1.121
   51        0.009   0.013   1.098   1.121
   52        0.000   0.000   0.001   0.001
   53       -0.009  -0.013  -1.098  -1.121
   54        0.009   0.013   1.099   1.121
   55       -0.000   0.000   0.001   0.001
   56       -0.009  -0.013  -1.099  -1.121
   57        0.009   0.013   1.099   1.121
   58       -0.000  -0.000   0.001   0.001
   59       -0.009  -0.013  -1.100  -1.122
   60        0.009   0.013   1.099   1.121
   61        0.000  -0.000   0.001   0.001
   62       -0.009  -0.013  -1.099  -1.121
   63        0.009   0.014   1.098   1.120
   64        0.000   0.001   0.022   0.023
   65       -0.009  -0.013  -1.101  -1.123
   66        0.009   0.012   1.075   1.096
   67        0.001   0.001   0.045   0.047
   68       -0.008  -0.012  -1.088  -1.108
   69        0.007   0.011   1.029   1.048
   70       -0.002  -0.003  -0.129  -0.134
   71       -0.005  -0.008  -0.889  -0.902
   72        0.007   0.011   1.062   1.080
   73        0.000   0.000   0.000   0.000
   74       -0.000   0.000  -0.000  -0.000
   75        0.000  -0.000  -0.001  -0.001
   76       -0.000  -0.000   0.000   0.000
   77        0.000   0.000  -0.000   0.000
   78        0.000  -0.000   0.000   0.000
   79       -0.000  -0.000  -0.000  -0.000
   80       -0.000   0.000  -0.000  -0.000
   81       -0.000   0.000  -0.000  -0.000
   82        0.000  -0.000  -0.000  -0.000
   83       -0.000   0.000  -0.000  -0.000
   84        0.000   0.000  -0.000   0.000
   85        0.000  -0.000  -0.000  -0.000
   86       -0.000  -0.000  -0.000  -0.000
   87        0.000   0.000   0.000   0.000
   88        0.000  -0.000  -0.000  -0.000
   89       -0.000  -0.000   0.000   0.000
   90        0.000   0.000   0.000   0.000
   91       -0.000   0.000   0.000   0.001
   92        0.000  -0.000   0.000   0.000
   93        0.000  -0.000  -0.000  -0.000
   94        0.000   0.000  -0.000  -0.000
   95        0.000   0.000   0.000   0.000
   96        0.000  -0.000   0.000   0.000
--------------------------------------------------
tot          0.000   0.000   0.011   0.011
 


 magnetization (z)
 
# of ion       s       p       d       tot
------------------------------------------
    1       -0.010  -0.015  -1.222  -1.247
    2        0.005   0.008   0.919   0.932
    3        0.007   0.010   0.992   1.009
    4       -0.012  -0.016  -1.262  -1.290
    5        0.007   0.009   0.962   0.977
    6        0.007   0.010   0.988   1.004
    7       -0.012  -0.017  -1.289  -1.318
    8        0.006   0.010   0.979   0.996
    9        0.007   0.010   0.979   0.995
   10       -0.012  -0.017  -1.290  -1.319
   11        0.006   0.010   0.981   0.997
   12        0.007   0.010   0.978   0.994
   13       -0.012  -0.017  -1.293  -1.322
   14        0.007   0.010   0.978   0.995
   15        0.006   0.010   0.978   0.995
   16       -0.012  -0.017  -1.292  -1.321
   17        0.006   0.010   0.979   0.996
   18        0.006   0.010   0.979   0.995
   19       -0.012  -0.017  -1.293  -1.322
   20        0.007   0.010   0.979   0.995
   21        0.006   0.010   0.978   0.995
   22       -0.012  -0.017  -1.293  -1.322
   23        0.007   0.010   0.980   0.996
   24        0.006   0.010   0.978   0.995
   25       -0.012  -0.017  -1.292  -1.322
   26        0.006   0.010   0.978   0.995
   27        0.006   0.010   0.979   0.995
   28       -0.012  -0.017  -1.292  -1.321
   29        0.006   0.010   0.979   0.995
   30        0.006   0.010   0.979   0.995
   31       -0.012  -0.017  -1.293  -1.322
   32        0.007   0.010   0.979   0.996
   33        0.006   0.010   0.980   0.996
   34       -0.012  -0.017  -1.292  -1.322
   35        0.006   0.010   0.978   0.995
   36        0.006   0.010   0.978   0.995
   37       -0.012  -0.017  -1.292  -1.321
   38        0.007   0.010   0.979   0.995
   39        0.006   0.010   0.978   0.995
   40       -0.012  -0.017  -1.293  -1.322
   41        0.007   0.010   0.979   0.995
   42        0.006   0.010   0.979   0.995
   43       -0.012  -0.017  -1.293  -1.322
   44        0.006   0.010   0.978   0.995
   45        0.006   0.010   0.979   0.995
   46       -0.012  -0.017  -1.292  -1.321
   47        0.007   0.010   0.979   0.996
   48        0.007   0.010   0.979   0.996
   49       -0.012  -0.017  -1.293  -1.323
   50        0.006   0.010   0.979   0.995
   51        0.006   0.010   0.979   0.995
   52       -0.012  -0.017  -1.291  -1.321
   53        0.006   0.010   0.979   0.996
   54        0.006   0.010   0.980   0.996
   55       -0.012  -0.017  -1.294  -1.323
   56        0.007   0.010   0.979   0.995
   57        0.007   0.010   0.978   0.995
   58       -0.012  -0.017  -1.289  -1.318
   59        0.006   0.010   0.981   0.997
   60        0.007   0.010   0.978   0.995
   61       -0.012  -0.017  -1.289  -1.318
   62        0.006   0.010   0.979   0.996
   63        0.006   0.010   0.980   0.996
   64       -0.012  -0.016  -1.263  -1.291
   65        0.006   0.009   0.960   0.975
   66        0.006   0.010   0.988   1.005
   67       -0.010  -0.015  -1.223  -1.248
   68        0.005   0.008   0.919   0.932
   69        0.007   0.010   0.992   1.009
   70       -0.008  -0.011  -1.061  -1.080
   71        0.007   0.010   1.004   1.021
   72        0.002   0.004   0.786   0.792
   73       -0.005  -0.006  -0.019  -0.029
   74       -0.004  -0.006  -0.021  -0.031
   75       -0.005  -0.006  -0.019  -0.029
   76       -0.005  -0.006  -0.019  -0.030
   77       -0.005  -0.006  -0.019  -0.029
   78       -0.005  -0.006  -0.019  -0.030
   79       -0.005  -0.006  -0.019  -0.029
   80       -0.005  -0.006  -0.019  -0.029
   81       -0.004  -0.006  -0.019  -0.029
   82       -0.005  -0.006  -0.019  -0.029
   83       -0.005  -0.006  -0.020  -0.030
   84       -0.005  -0.006  -0.019  -0.029
   85       -0.005  -0.006  -0.019  -0.029
   86       -0.004  -0.006  -0.020  -0.030
   87       -0.004  -0.006  -0.019  -0.029
   88       -0.005  -0.006  -0.019  -0.029
   89       -0.005  -0.006  -0.019  -0.029
   90       -0.005  -0.006  -0.019  -0.030
   91       -0.004  -0.006  -0.019  -0.030
   92       -0.004  -0.006  -0.019  -0.029
   93       -0.005  -0.006  -0.019  -0.029
   94       -0.005  -0.006  -0.021  -0.031
   95       -0.005  -0.006  -0.019  -0.030
   96       -0.005  -0.006  -0.019  -0.030
--------------------------------------------------
tot         -0.090  -0.067  15.670  15.513
 
    CHARGE:  cpu time    1.1801: real time    1.1813
    MIXING:  cpu time    0.0040: real time    0.0014
    --------------------------------------------
      LOOP:  cpu time  194.0961: real time  194.2548

 eigenvalue-minimisations  : 96816
 total energy-change (2. order) :-0.1968612E+02  (-0.1865826E+02)
 number of electron    1152.0004973 magnetization      -0.0034559      0.0002692     23.8107295
 augmentation part      583.6513571 magnetization       0.0448509     -0.0035940     19.5810521

 Broyden mixing:
  rms(total) = 0.29298E+01    rms(broyden)= 0.29226E+01
  rms(prec ) = 0.29252E+01
  weight for this iteration     100.00

 Free energy of the ion-electron system (eV)
  ---------------------------------------------------
  alpha Z        PSCENC =      9099.10973431
  Ewald energy   TEWEN  =   -124095.00916210
  -Hartree energ DENC   =    -34410.01378153
  -exchange      EXHF   =         0.00000000
  -V(xc)+E(xc)   XCENC  =      4454.32772290
  PAW double counting   =    146110.59836486  -149070.06368617
  entropy T*S    EENTRO =        -0.49716508
  eigenvalues    EBANDS =    -12222.85523347
  atomic energy  EATOM  =    159259.63132215
  Solvation  Ediel_sol  =         0.00000000
  ---------------------------------------------------
  free energy    TOTEN  =      -874.77188411 eV

  energy without entropy =     -874.27471903  energy(sigma->0) =     -874.52330157


--------------------------------------------------------------------------------------------------------




--------------------------------------- Iteration      1(   6)  ---------------------------------------


    POTLOK:  cpu time    0.0720: real time    0.0789
    SETDIJ:  cpu time    0.0320: real time    0.0329
     EDDAV:  cpu time  198.8124: real time  198.9711
       DOS:  cpu time    0.0160: real time    0.0162
    CHARGE:  cpu time    0.8761: real time    0.8754
    MIXING:  cpu time    0.0000: real time    0.0013
    --------------------------------------------
      LOOP:  cpu time  199.8085: real time  199.9757

 eigenvalue-minimisations  :101728
 total energy-change (2. order) :-0.9455306E+01  (-0.2570573E+01)
 number of electron    1152.0004940 magnetization      -0.0066198     -0.0003103     23.6963016
 augmentation part      582.9532772 magnetization       0.1133407      0.0365014     18.6979773

 Broyden mixing:
  rms(total) = 0.27525E+01    rms(broyden)= 0.27486E+01
  rms(prec ) = 0.29855E+01
  weight for this iteration     100.00

 eigenvalues of (default mixing * dielectric matrix)
  average eigenvalue GAMMA=   0.7380
  0.7380

 Free energy of the ion-electron system (eV)
  ---------------------------------------------------
  alpha Z        PSCENC =      9099.10973431
  Ewald energy   TEWEN  =   -124095.00916210
  -Hartree energ DENC   =    -34493.35701240
  -exchange      EXHF   =         0.00000000
  -V(xc)+E(xc)   XCENC  =      4467.53645139
  PAW double counting   =    147038.52186125  -150010.33431728
  entropy T*S    EENTRO =        -0.52784652
  eigenvalues    EBANDS =    -12149.79822107
  atomic energy  EATOM  =    159259.63132215
  Solvation  Ediel_sol  =         0.00000000
  ---------------------------------------------------
  free energy    TOTEN  =      -884.22719026 eV

  energy without entropy =     -883.69934374  energy(sigma->0) =     -883.96326700


--------------------------------------------------------------------------------------------------------




--------------------------------------- Iteration      1(   7)  ---------------------------------------


    POTLOK:  cpu time    0.0720: real time    0.0862
[...]
     0.0000000     0.0000000     0.0000000     0.0000000     0.0000000     0.0000000     0.0000000
     0.0000000     0.0000000     0.0000000     0.0000000     0.0000000     0.0000000     0.0000000
     0.0000000     0.0000000     0.0000000     0.0000000     0.0000000     0.0000000     0.0000000
     0.0000000     0.0000000     0.0000000     0.0000000     0.0000000     0.0000000     0.0000000

 Ion:   96  E_soc:     -0.7848241
 l=   1
     0.0000000    -0.0411019    -0.0402168
    -0.0411019     0.0000000    -0.0402154
    -0.0402168    -0.0402154     0.0000000
 l=   2
     0.0000000    -0.0190135     0.0000000    -0.0182764    -0.0719403
    -0.0190135     0.0000000    -0.0530243    -0.0190126    -0.0176756
     0.0000000    -0.0530243     0.0000000    -0.0549808     0.0000000
    -0.0182764    -0.0190126    -0.0549808     0.0000000    -0.0169544
    -0.0719403    -0.0176756     0.0000000    -0.0169544     0.0000000
 l=   3
     0.0000000     0.0000000     0.0000000     0.0000000     0.0000000     0.0000000     0.0000000
     0.0000000     0.0000000     0.0000000     0.0000000     0.0000000     0.0000000     0.0000000
     0.0000000     0.0000000     0.0000000     0.0000000     0.0000000     0.0000000     0.0000000
     0.0000000     0.0000000     0.0000000     0.0000000     0.0000000     0.0000000     0.0000000
     0.0000000     0.0000000     0.0000000     0.0000000     0.0000000     0.0000000     0.0000000
     0.0000000     0.0000000     0.0000000     0.0000000     0.0000000     0.0000000     0.0000000
     0.0000000     0.0000000     0.0000000     0.0000000     0.0000000     0.0000000     0.0000000
 


 total charge     
 
# of ion       s       p       d       tot
------------------------------------------
    1        0.369   6.339   5.016  11.724
    2        0.369   6.339   5.016  11.724
    3        0.369   6.339   5.016  11.724
    4        0.369   6.339   5.016  11.724
    5        0.369   6.339   5.016  11.724
    6        0.369   6.339   5.016  11.724
    7        0.369   6.339   5.017  11.724
    8        0.369   6.339   5.017  11.724
    9        0.369   6.339   5.016  11.724
   10        0.369   6.339   5.016  11.724
   11        0.369   6.339   5.016  11.724
   12        0.369   6.339   5.016  11.724
   13        0.369   6.339   5.016  11.724
   14        0.369   6.339   5.016  11.724
   15        0.369   6.339   5.016  11.724
   16        0.369   6.339   5.016  11.724
   17        0.369   6.339   5.016  11.724
   18        0.369   6.339   5.016  11.724
   19        0.369   6.339   5.016  11.724
   20        0.369   6.339   5.016  11.724
   21        0.369   6.339   5.016  11.724
   22        0.369   6.339   5.016  11.724
   23        0.369   6.339   5.016  11.724
   24        0.369   6.339   5.016  11.724
   25        0.369   6.339   5.016  11.724
   26        0.369   6.339   5.016  11.724
   27        0.369   6.339   5.016  11.724
   28        0.369   6.339   5.016  11.724
   29        0.369   6.339   5.016  11.724
   30        0.369   6.339   5.016  11.724
   31        0.369   6.339   5.016  11.724
   32        0.369   6.339   5.016  11.724
   33        0.369   6.339   5.016  11.724
   34        0.369   6.339   5.016  11.724
   35        0.369   6.339   5.017  11.724
   36        0.369   6.339   5.017  11.724
   37        0.369   6.339   5.016  11.724
   38        0.369   6.339   5.016  11.724
   39        0.369   6.339   5.016  11.724
   40        0.369   6.339   5.016  11.724
   41        0.369   6.339   5.016  11.724
   42        0.369   6.339   5.016  11.724
   43        0.369   6.339   5.016  11.724
   44        0.369   6.339   5.016  11.724
   45        0.369   6.339   5.016  11.724
   46        0.369   6.339   5.016  11.724
   47        0.369   6.339   5.016  11.724
   48        0.369   6.339   5.016  11.724
   49        0.369   6.339   5.016  11.724
   50        0.369   6.339   5.016  11.724
   51        0.369   6.339   5.016  11.724
   52        0.369   6.339   5.016  11.724
   53        0.369   6.339   5.016  11.724
   54        0.369   6.339   5.016  11.724
   55        0.369   6.339   5.016  11.724
   56        0.369   6.339   5.016  11.724
   57        0.369   6.339   5.016  11.724
   58        0.369   6.339   5.016  11.724
   59        0.369   6.339   5.016  11.724
   60        0.369   6.339   5.016  11.724
   61        0.369   6.339   5.016  11.724
   62        0.369   6.339   5.016  11.724
   63        0.369   6.339   5.016  11.724
   64        0.369   6.339   5.016  11.724
   65        0.369   6.339   5.016  11.724
   66        0.369   6.339   5.017  11.724
   67        0.369   6.339   5.017  11.724
   68        0.369   6.339   5.016  11.724
   69        0.369   6.339   5.017  11.724
   70        0.369   6.339   5.017  11.724
   71        0.369   6.339   5.016  11.724
   72        0.369   6.339   5.017  11.724
   73        0.754   0.716   6.998   8.468
   74        0.754   0.716   6.998   8.468
   75        0.754   0.717   6.998   8.468
   76        0.754   0.717   6.998   8.468
   77        0.754   0.717   6.998   8.468
   78        0.754   0.717   6.998   8.468
   79        0.754   0.717   6.998   8.468
   80        0.754   0.717   6.998   8.468
   81        0.754   0.717   6.998   8.468
   82        0.754   0.717   6.998   8.468
   83        0.754   0.717   6.998   8.468
   84        0.754   0.717   6.998   8.468
   85        0.754   0.717   6.998   8.468
   86        0.754   0.717   6.998   8.468
   87        0.754   0.717   6.998   8.468
   88        0.754   0.717   6.998   8.468
   89        0.754   0.717   6.998   8.468
   90        0.754   0.717   6.998   8.468
   91        0.754   0.717   6.998   8.468
   92        0.754   0.717   6.998   8.468
   93        0.754   0.717   6.998   8.468
   94        0.754   0.716   6.998   8.468
   95        0.754   0.716   6.998   8.468
   96        0.754   0.716   6.998   8.468
--------------------------------------------------
tot         44.652 473.590 529.1281047.370
 


 magnetization (x)
 
# of ion       s       p       d       tot
------------------------------------------
    1       -0.000  -0.000  -0.015  -0.015
    2       -0.000  -0.000  -0.008  -0.008
    3       -0.000  -0.000   0.000   0.000
    4       -0.000  -0.000  -0.015  -0.015
    5       -0.000  -0.000  -0.007  -0.008
    6       -0.000  -0.000   0.000  -0.000
    7       -0.000  -0.000  -0.015  -0.015
    8       -0.000  -0.000  -0.007  -0.007
    9       -0.000  -0.000  -0.001  -0.001
   10       -0.000  -0.000  -0.015  -0.015
   11       -0.000  -0.000  -0.006  -0.006
   12       -0.000  -0.000  -0.002  -0.002
   13       -0.000  -0.000  -0.014  -0.015
   14       -0.000  -0.000  -0.005  -0.005
   15       -0.000  -0.000  -0.003  -0.003
   16       -0.000  -0.000  -0.014  -0.014
   17       -0.000  -0.000  -0.005  -0.005
   18       -0.000  -0.000  -0.004  -0.004
   19       -0.000  -0.000  -0.014  -0.014
   20       -0.000  -0.000  -0.004  -0.004
   21       -0.000  -0.000  -0.005  -0.005
   22       -0.000  -0.000  -0.014  -0.014
   23       -0.000  -0.000  -0.004  -0.004
   24       -0.000  -0.000  -0.005  -0.005
   25       -0.000  -0.000  -0.013  -0.014
   26       -0.000  -0.000  -0.004  -0.004
   27       -0.000  -0.000  -0.005  -0.005
   28       -0.000  -0.000  -0.013  -0.014
   29       -0.000  -0.000  -0.004  -0.005
   30       -0.000  -0.000  -0.005  -0.005
   31       -0.000  -0.000  -0.013  -0.014
   32       -0.000  -0.000  -0.005  -0.005
   33       -0.000  -0.000  -0.005  -0.005
   34       -0.000  -0.000  -0.013  -0.014
   35       -0.000  -0.000  -0.005  -0.005
   36       -0.000  -0.000  -0.005  -0.005
   37       -0.000  -0.000  -0.013  -0.014
   38       -0.000  -0.000  -0.005  -0.005
   39       -0.000  -0.000  -0.005  -0.005
   40       -0.000  -0.000  -0.013  -0.014
   41       -0.000  -0.000  -0.004  -0.005
   42       -0.000  -0.000  -0.005  -0.005
   43       -0.000  -0.000  -0.013  -0.014
   44       -0.000  -0.000  -0.004  -0.004
   45       -0.000  -0.000  -0.005  -0.005
   46       -0.000  -0.000  -0.014  -0.014
   47       -0.000  -0.000  -0.004  -0.004
   48       -0.000  -0.000  -0.005  -0.005
   49       -0.000  -0.000  -0.014  -0.014
   50       -0.000  -0.000  -0.004  -0.004
   51       -0.000  -0.000  -0.005  -0.005
   52       -0.000  -0.000  -0.014  -0.014
   53       -0.000  -0.000  -0.005  -0.005
   54       -0.000  -0.000  -0.004  -0.004
   55       -0.000  -0.000  -0.014  -0.015
   56       -0.000  -0.000  -0.005  -0.005
   57       -0.000  -0.000  -0.003  -0.004
   58       -0.000  -0.000  -0.014  -0.015
   59       -0.000  -0.000  -0.006  -0.006
   60       -0.000  -0.000  -0.003  -0.003
   61       -0.000  -0.000  -0.015  -0.015
   62       -0.000  -0.000  -0.007  -0.007
   63       -0.000  -0.000  -0.001  -0.002
   64       -0.000  -0.000  -0.015  -0.015
   65       -0.000  -0.000  -0.007  -0.007
   66       -0.000  -0.000  -0.000  -0.000
   67       -0.000  -0.000  -0.015  -0.015
   68       -0.000  -0.000  -0.008  -0.008
   69       -0.000  -0.000   0.000   0.000
   70       -0.000  -0.000  -0.008  -0.009
   71       -0.000  -0.000   0.001   0.001
   72       -0.000  -0.000  -0.015  -0.016
   73        0.000   0.000   0.001   0.001
   74        0.000  -0.000   0.001   0.001
   75        0.000  -0.000   0.001   0.001
   76        0.000  -0.000   0.001   0.001
   77        0.000  -0.000   0.001   0.001
   78        0.000  -0.000   0.001   0.001
   79        0.000  -0.000   0.001   0.001
   80        0.000  -0.000   0.001   0.001
   81        0.000  -0.000   0.001   0.001
   82        0.000  -0.000   0.001   0.001
   83        0.000  -0.000   0.001   0.001
   84        0.000  -0.000   0.001   0.001
   85        0.000  -0.000   0.001   0.001
   86        0.000  -0.000   0.001   0.001
   87        0.000  -0.000   0.001   0.001
   88        0.000  -0.000   0.001   0.001
   89        0.000  -0.000   0.001   0.001
   90        0.000  -0.000   0.001   0.001
   91        0.000  -0.000   0.001   0.001
   92        0.000  -0.000   0.001   0.001
   93        0.000  -0.000   0.001   0.001
   94        0.000  -0.000   0.001   0.001
   95        0.000   0.000   0.001   0.001
   96        0.000   0.000   0.001   0.001
--------------------------------------------------
tot         -0.007  -0.012  -0.525  -0.543
 


 magnetization (y)
 
# of ion       s       p       d       tot
------------------------------------------
    1        0.002   0.003   0.195   0.200
    2       -0.025  -0.038  -2.356  -2.419
    3        0.023   0.035   2.157   2.215
    4        0.002   0.003   0.197   0.202
    5       -0.025  -0.038  -2.356  -2.419
    6        0.023   0.035   2.157   2.215
    7        0.002   0.003   0.189   0.195
    8       -0.025  -0.038  -2.353  -2.416
    9        0.023   0.035   2.162   2.220
   10        0.002   0.003   0.181   0.186
   11       -0.025  -0.038  -2.350  -2.413
   12        0.023   0.035   2.166   2.224
   13        0.002   0.003   0.162   0.166
   14       -0.025  -0.038  -2.340  -2.403
   15        0.023   0.035   2.177   2.236
   16        0.001   0.002   0.122   0.126
   17       -0.025  -0.038  -2.322  -2.384
   18        0.023   0.036   2.198   2.258
   19        0.001   0.001   0.076   0.078
   20       -0.025  -0.037  -2.300  -2.362
   21        0.024   0.036   2.223   2.283
   22        0.000   0.001   0.038   0.039
   23       -0.024  -0.037  -2.281  -2.343
   24        0.024   0.037   2.243   2.304
   25        0.000   0.000   0.015   0.015
   26       -0.024  -0.037  -2.270  -2.331
   27        0.024   0.037   2.255   2.316
   28        0.000   0.000   0.005   0.005
   29       -0.024  -0.037  -2.265  -2.326
   30        0.024   0.037   2.260   2.321
   31        0.000   0.000   0.003   0.003
   32       -0.024  -0.037  -2.263  -2.324
   33        0.024   0.037   2.261   2.322
   34        0.000   0.000   0.003   0.003
   35       -0.024  -0.037  -2.263  -2.324
   36        0.024   0.037   2.261   2.322
   37        0.000   0.000   0.003   0.003
   38       -0.024  -0.037  -2.263  -2.324
   39        0.024   0.037   2.261   2.322
   40        0.000   0.000   0.005   0.005
   41       -0.024  -0.037  -2.264  -2.325
   42        0.024   0.037   2.260   2.321
   43        0.000   0.000   0.015   0.015
   44       -0.024  -0.037  -2.269  -2.331
   45        0.024   0.037   2.255   2.316
   46        0.000   0.001   0.037   0.039
   47       -0.024  -0.037  -2.281  -2.342
   48        0.024   0.037   2.244   2.304
   49        0.001   0.001   0.075   0.077
   50       -0.025  -0.037  -2.300  -2.361
   51        0.024   0.036   2.224   2.284
   52        0.001   0.002   0.122   0.125
   53       -0.025  -0.038  -2.321  -2.384
   54        0.023   0.036   2.199   2.258
   55        0.002   0.003   0.161   0.165
   56       -0.025  -0.038  -2.340  -2.403
   57        0.023   0.035   2.178   2.236
   58        0.002   0.003   0.180   0.185
   59       -0.025  -0.038  -2.349  -2.412
   60        0.023   0.035   2.167   2.225
   61        0.002   0.003   0.188   0.193
   62       -0.025  -0.038  -2.352  -2.415
   63        0.023   0.035   2.163   2.221
   64        0.002   0.003   0.196   0.201
   65       -0.025  -0.038  -2.355  -2.419
   66        0.023   0.035   2.158   2.216
   67        0.002   0.003   0.194   0.200
   68       -0.025  -0.038  -2.356  -2.419
   69        0.023   0.035   2.157   2.215
   70       -0.025  -0.038  -2.357  -2.420
   71        0.023   0.035   2.158   2.217
   72        0.002   0.003   0.197   0.202
   73        0.000   0.000  -0.000  -0.000
   74        0.000   0.000  -0.000  -0.000
   75        0.000   0.000  -0.000  -0.000
   76        0.000   0.000  -0.000  -0.000
   77        0.000   0.000  -0.000  -0.000
   78        0.000   0.000  -0.000  -0.000
   79        0.000   0.000  -0.000  -0.000
   80        0.000  -0.000  -0.000  -0.000
   81       -0.000  -0.000   0.000  -0.000
   82       -0.000  -0.000   0.000  -0.000
   83       -0.000  -0.000   0.000  -0.000
   84       -0.000  -0.000   0.000  -0.000
   85       -0.000  -0.000   0.000   0.000
   86       -0.000  -0.000   0.000  -0.000
   87       -0.000  -0.000   0.000  -0.000
   88        0.000  -0.000  -0.000  -0.000
   89        0.000   0.000  -0.000  -0.000
   90        0.000   0.000  -0.000  -0.000
   91        0.000   0.000  -0.000  -0.000
   92        0.000   0.000  -0.000  -0.000
   93        0.000   0.000  -0.000  -0.000
   94        0.000   0.000  -0.000  -0.000
   95        0.000   0.000  -0.000  -0.000
   96        0.000   0.000  -0.000  -0.000
--------------------------------------------------
tot         -0.000   0.000  -0.021  -0.021
 


 magnetization (z)
 
# of ion       s       p       d       tot
------------------------------------------
    1       -0.028  -0.042  -2.605  -2.676
    2        0.012   0.018   1.130   1.160
    3        0.016   0.024   1.475   1.515
    4       -0.028  -0.042  -2.605  -2.675
    5        0.012   0.018   1.129   1.160
    6        0.016   0.024   1.474   1.514
    7       -0.028  -0.042  -2.606  -2.676
    8        0.012   0.018   1.136   1.167
    9        0.016   0.024   1.467   1.507
   10       -0.028  -0.042  -2.606  -2.677
   11        0.012   0.019   1.143   1.174
   12        0.016   0.024   1.461   1.501
   13       -0.028  -0.042  -2.608  -2.678
   14        0.012   0.019   1.162   1.194
   15        0.015   0.024   1.445   1.484
   16       -0.028  -0.042  -2.610  -2.680
   17        0.013   0.020   1.198   1.231
   18        0.015   0.023   1.412   1.450
   19       -0.028  -0.042  -2.612  -2.682
   20        0.013   0.020   1.240   1.273
   21        0.015   0.022   1.372   1.409
   22       -0.028  -0.043  -2.613  -2.683
   23        0.014   0.021   1.274   1.308
   24        0.014   0.022   1.339   1.375
   25       -0.028  -0.043  -2.613  -2.683
   26        0.014   0.021   1.295   1.329
   27        0.014   0.021   1.320   1.355
   28       -0.028  -0.043  -2.613  -2.683
   29        0.014   0.021   1.303   1.338
   30        0.014   0.021   1.311   1.347
   31       -0.028  -0.043  -2.613  -2.683
   32        0.014   0.021   1.306   1.341
   33        0.014   0.021   1.309   1.344
   34       -0.028  -0.043  -2.613  -2.683
   35        0.014   0.021   1.306   1.341
   36        0.014   0.021   1.309   1.344
   37       -0.028  -0.043  -2.613  -2.683
   38        0.014   0.021   1.306   1.341
   39        0.014   0.021   1.309   1.344
   40       -0.028  -0.043  -2.613  -2.683
   41        0.014   0.021   1.303   1.339
   42        0.014   0.021   1.311   1.347
   43       -0.028  -0.043  -2.613  -2.683
   44        0.014   0.021   1.295   1.330
   45        0.014   0.021   1.319   1.355
   46       -0.028  -0.043  -2.613  -2.683
   47        0.014   0.021   1.274   1.309
   48        0.014   0.022   1.339   1.375
   49       -0.028  -0.042  -2.612  -2.682
   50        0.013   0.020   1.240   1.274
   51        0.015   0.022   1.372   1.409
   52       -0.028  -0.042  -2.610  -2.680
   53        0.013   0.020   1.199   1.231
   54        0.015   0.023   1.411   1.450
   55       -0.028  -0.042  -2.608  -2.678
   56        0.012   0.019   1.163   1.195
   57        0.015   0.023   1.444   1.483
   58       -0.028  -0.042  -2.607  -2.677
   59        0.012   0.019   1.145   1.175
   60        0.016   0.024   1.460   1.499
   61       -0.028  -0.042  -2.606  -2.676
   62        0.012   0.019   1.138   1.168
   63        0.016   0.024   1.466   1.505
   64       -0.028  -0.042  -2.605  -2.675
   65        0.012   0.018   1.131   1.161
   66        0.016   0.024   1.473   1.513
   67       -0.028  -0.042  -2.605  -2.676
   68        0.012   0.018   1.130   1.161
   69        0.016   0.024   1.474   1.514
   70        0.012   0.018   1.127   1.157
   71        0.016   0.024   1.472   1.512
   72       -0.028  -0.042  -2.605  -2.675
   73        0.000   0.000  -0.000  -0.000
   74        0.000   0.000  -0.000  -0.000
   75        0.000   0.000  -0.000  -0.000
   76        0.000   0.000  -0.000  -0.000
   77        0.000   0.000  -0.000  -0.000
   78       -0.000  -0.000   0.000  -0.000
   79       -0.000  -0.000   0.000  -0.000
   80       -0.000  -0.000   0.000  -0.000
   81       -0.000  -0.000   0.000   0.000
   82       -0.000  -0.000   0.000   0.000
   83       -0.000  -0.000   0.000   0.000
   84       -0.000  -0.000   0.000   0.000
   85       -0.000  -0.000   0.000   0.000
   86       -0.000  -0.000   0.000   0.000
   87       -0.000  -0.000   0.000   0.000
   88       -0.000  -0.000   0.000  -0.000
   89       -0.000  -0.000   0.000  -0.000
   90       -0.000  -0.000   0.000  -0.000
   91        0.000   0.000  -0.000  -0.000
   92        0.000   0.000  -0.000  -0.000
   93        0.000   0.000  -0.000  -0.000
   94        0.000   0.000  -0.000  -0.000
   95        0.000   0.000  -0.000  -0.000
   96        0.000   0.000  -0.000  -0.000
--------------------------------------------------
tot         -0.000   0.000  -0.002  -0.002
 

 total amount of memory used by VASP MPI-rank0   161412. kBytes
=======================================================================

   base      :      30000. kBytes
   nonlr-proj:       5231. kBytes
   fftplans  :        900. kBytes
   grid      :       3133. kBytes
   one-center:        497. kBytes
   wavefun   :     121651. kBytes
 
  
  
 General timing and accounting informations for this job:
 ========================================================
  
                  Total CPU time used (sec):    13668.990
                            User time (sec):    13272.749
                          System time (sec):      396.241
                         Elapsed time (sec):    13789.761
  
                   Maximum memory used (kb):      503856.
                   Average memory used (kb):           0.
  
                          Minor page faults:       132264
                          Major page faults:            0
                 Voluntary context switches:       269269
